# Residuals             
# Time                  	U_solver                	Ux_initial              	Ux_final                	Ux_iters                	Uy_initial              	Uy_final                	Uy_iters                	Uz_initial              	Uz_final                	Uz_iters                	U_converged             	k_solver                	k_initial               	k_final                 	k_iters                 	k_converged             	p_solver                	p_initial               	p_final                 	p_iters                 	p_converged             	omega_solver            	omega_initial           	omega_final             	omega_iters             	omega_converged         
1                       	smoothSolver	9.9999996912715849e-01	4.0783888236737918e-05	4	1.0609082614588050e-01	8.0778472304366188e-06	4	9.9991358793523732e-01	1.7417464323415301e-04	4	0	smoothSolver	9.9999999999945155e-01	8.1905880872422973e-05	4	1	GAMG	1.0000000000000000e+00	7.5027805761529920e-04	5	1	smoothSolver	1.2912856802194700e-02	3.0219232078095541e-06	4	1
2                       	smoothSolver	5.8456648738524120e-01	4.1098230078522462e-05	4	4.3773767352865001e-01	1.0440120232633040e-05	4	4.2767425511047641e-01	7.0642417018019568e-06	4	0	smoothSolver	3.5202592763745011e-01	7.0812813017696854e-06	4	1	GAMG	2.0373902347438880e-01	2.2566283679567139e-05	4	1	smoothSolver	3.1918493633235579e-03	4.2270233631250588e-08	4	1
3                       	smoothSolver	6.5779654765872586e-01	8.2938627694414577e-06	4	3.7277167661294919e-01	1.7216770301760000e-06	4	2.0392675789290871e-01	1.1640420588346650e-04	2	0	smoothSolver	1.3387261544886020e-01	8.8564720414247503e-07	4	1	GAMG	1.0784730944910220e-01	8.6657162747213960e-05	4	1	smoothSolver	1.9786612026776681e-03	1.6659956525693630e-06	2	1
4                       	smoothSolver	6.8379525363897753e-01	2.6792558517877021e-04	2	1.9583745119335061e-01	8.0684227519262642e-05	2	1.3971991190665470e-01	3.6616498615517137e-05	2	0	smoothSolver	5.0428761954858507e-02	1.5884645739957209e-05	2	1	GAMG	6.1151016619760273e-02	1.7467075816372959e-05	5	1	smoothSolver	1.4828242020145110e-03	1.1865073637775790e-07	2	1
5                       	smoothSolver	7.1639851295812806e-01	2.5290974264166442e-04	2	1.6268505083025489e-01	4.4457028152553603e-05	2	9.7695306585178207e-02	1.5063367907678790e-05	2	0	smoothSolver	8.2640588603606943e-02	1.3169528408963511e-05	2	1	GAMG	8.7948996785051470e-02	1.7083005716237880e-05	4	1	smoothSolver	1.6480182807901930e-03	9.0485029956291428e-08	2	1
6                       	smoothSolver	6.5085117006033322e-01	2.8237929305717789e-04	2	1.4945052652618090e-01	4.0085978764892078e-05	2	1.1909757310673920e-01	3.5908703985044537e-05	2	0	smoothSolver	6.8051869454523226e-02	1.1030087211476960e-05	2	1	GAMG	1.6424926605283041e-01	5.0043225215947008e-05	4	1	smoothSolver	1.0466991794689511e-03	1.3898976266624389e-07	2	1
7                       	smoothSolver	3.4704332863231108e-01	1.4198467738634491e-04	2	1.2833802006135561e-01	2.9874096089308760e-05	2	1.5951403277858611e-01	4.7605049351904828e-05	2	0	smoothSolver	6.1631523608511582e-02	8.8399609116643672e-06	2	1	GAMG	2.4804288246860379e-01	1.0916197741776660e-04	4	1	smoothSolver	7.8450753685059907e-04	8.6371239712153492e-08	2	1
8                       	smoothSolver	1.6432292530084691e-01	3.8162457860033482e-05	2	9.2931303027205633e-02	2.3290621271898831e-05	2	1.8964723177633969e-01	6.4750604036297436e-05	2	0	smoothSolver	5.7439437755000003e-02	8.3503124722680053e-06	2	1	GAMG	5.6290201045978849e-01	2.6154671213482028e-04	4	1	smoothSolver	8.4473873977922989e-04	7.0809680438764775e-08	2	1
9                       	smoothSolver	4.0978968767594409e-01	1.9762984617403449e-04	2	5.2934498286183969e-02	1.8049949665012630e-05	2	1.9522588168237370e-01	1.2192905849367590e-04	2	0	smoothSolver	5.7186920003032118e-02	1.0310162580335070e-05	2	1	GAMG	2.4408093876162559e-01	6.6071905903598987e-05	4	1	smoothSolver	7.2658091309786771e-04	7.0529842948470588e-08	2	1
10                      	smoothSolver	5.4811275789999003e-01	4.5082746744770321e-04	2	4.1296304295065672e-02	1.4582826748388241e-05	2	1.6222561086986320e-01	2.5387291778920313e-07	4	0	smoothSolver	4.5583408690669951e-02	1.2755775118016661e-05	2	1	GAMG	1.8468613708054199e-01	1.1268713847102020e-04	3	1	smoothSolver	6.6000054608820970e-04	2.4278952439833518e-07	2	1
11                      	smoothSolver	5.3595988917814297e-01	3.8370776466020669e-04	2	8.2414043727533859e-02	4.4522637809007938e-05	2	1.0575749801736800e-01	9.8095327683976201e-05	2	0	smoothSolver	3.4175503015291007e-02	2.9638595187044459e-05	2	1	GAMG	1.8814682351152040e-01	8.1971598489492643e-05	4	1	smoothSolver	6.7678144410734226e-04	7.7513780938069254e-08	2	1
12                      	smoothSolver	2.7558815090340177e-01	1.3072033054587960e-06	4	1.6574347287210209e-01	3.0587968878509691e-07	4	6.0911063221170750e-02	1.6934550321483480e-07	4	0	smoothSolver	4.0727283846871319e-02	1.9425690100407111e-07	4	1	GAMG	2.3667793399374751e-01	1.6991852013162600e-04	4	1	smoothSolver	1.3130852153714391e-03	1.1458236911001639e-06	2	1
13                      	smoothSolver	1.3448746256272881e-01	1.0487003724115020e-06	4	2.3175640016395299e-01	5.9109801836704664e-07	4	4.3955840499182351e-02	3.9671609097689969e-05	2	0	smoothSolver	5.5561717378247548e-02	3.5458565018352080e-07	4	1	GAMG	3.4238525627931382e-01	3.1457363301285059e-04	4	1	smoothSolver	1.4155116135121731e-03	4.1243612118655167e-09	4	1
14                      	smoothSolver	2.4455707618284919e-01	6.3020454603971790e-07	4	2.3345300263453039e-01	6.5849844046704325e-07	4	4.6368390464068578e-02	1.0560111825667000e-07	4	0	smoothSolver	7.1461010972558553e-02	4.6606904299435321e-07	4	1	GAMG	3.5107241548487672e-01	2.3147703689837580e-04	4	1	smoothSolver	1.5100140367039290e-03	2.8734258442127160e-09	4	1
15                      	smoothSolver	4.3962813489016012e-01	6.1682869994787810e-06	4	1.7427738981845131e-01	1.1907250631630480e-06	4	7.1255116950438319e-02	5.2709085104353713e-07	4	0	smoothSolver	7.7248278038138982e-02	1.2431977970252769e-06	4	1	GAMG	2.3427253687312469e-01	1.7499320147479729e-04	3	1	smoothSolver	2.0705349445354032e-03	9.0782201850526587e-09	4	1
16                      	smoothSolver	5.6222406703899419e-01	1.0045636486350139e-05	4	1.1476657641165280e-01	6.9462023035928204e-07	4	1.0528609996362021e-01	7.8330213779454327e-07	4	0	smoothSolver	7.5058418441091540e-02	1.2403545896316970e-06	4	1	GAMG	2.2419237054866459e-01	8.8698017635055278e-05	4	1	smoothSolver	1.6050225872025611e-03	7.2542749709274047e-09	4	1
17                      	smoothSolver	2.9673914391486472e-01	4.5233647845389339e-06	4	9.4233624545280795e-02	8.6033631705153621e-05	2	1.6230008735397480e-01	9.8368488433786324e-07	4	0	smoothSolver	7.8496333888458489e-02	1.0745702279926660e-06	4	1	GAMG	2.7928300405758821e-01	1.7565471811224371e-04	4	1	smoothSolver	1.2490740791081399e-03	4.2880232124398576e-09	4	1
18                      	smoothSolver	1.0606583107295831e-01	1.8171810434864901e-06	4	1.0903606851358610e-01	4.0963528926723971e-07	4	2.2579762481563831e-01	1.3076920678116830e-06	4	0	smoothSolver	8.4334298123793797e-02	1.1109902016752599e-06	4	1	GAMG	3.8049712737311681e-01	2.7708882711504859e-04	4	1	smoothSolver	1.0024139172355949e-03	2.9861657981631501e-09	4	1
19                      	smoothSolver	1.2941927942813761e-01	1.0382755406732479e-06	4	1.4432117673192460e-01	6.4113207340329216e-07	4	2.5766466102550728e-01	1.6836802131019789e-06	4	0	smoothSolver	8.9768517251379160e-02	1.4238729230087380e-06	4	1	GAMG	5.8416532890854478e-01	4.7186563899764838e-04	4	1	smoothSolver	8.2877865703052456e-04	2.6967510949199159e-09	4	1
20                      	smoothSolver	3.3444142970769258e-01	6.6908639230687904e-06	4	1.7762719394836740e-01	9.4268328385652291e-07	4	2.3650101563296450e-01	1.9995081326498000e-06	4	0	smoothSolver	9.2116217331046676e-02	2.0783218026582960e-06	4	1	GAMG	1.8351028680806761e-01	7.1714223501437719e-05	4	1	smoothSolver	6.5433991438473859e-04	3.1988739665483249e-09	4	1
21                      	smoothSolver	4.8082936569868778e-01	1.0753670498165870e-05	4	2.0852665728303280e-01	1.0795347808237861e-06	4	1.8493223658916830e-01	1.4939010316216769e-06	4	0	smoothSolver	9.6553544367788818e-02	2.4064754903724260e-06	4	1	GAMG	2.2774926439841189e-01	7.4053139619083470e-05	4	1	smoothSolver	5.1328567106090578e-04	2.7652265363096560e-09	4	1
22                      	smoothSolver	2.8438247253412802e-01	7.1403688972957674e-06	4	2.1761519126507320e-01	1.0288033200010340e-06	4	1.3027022241786251e-01	8.9316963945279465e-07	4	0	smoothSolver	1.0292872673406270e-01	2.7638461652192411e-06	4	1	GAMG	3.2326196689852749e-01	1.3808258461306451e-04	4	1	smoothSolver	4.1207636098738098e-04	2.4221912577093550e-09	4	1
23                      	smoothSolver	1.1392197311607270e-01	2.8893225763894769e-06	4	2.1633329806566171e-01	9.5169714918775275e-07	4	1.0782187675004209e-01	4.6681081141853212e-07	4	0	smoothSolver	1.1221580483499050e-01	2.9435649972304091e-06	4	1	GAMG	4.6357527668052440e-01	1.9410476872235751e-04	4	1	smoothSolver	3.2640579134210463e-04	1.8288386605959550e-09	4	1
24                      	smoothSolver	8.5782173351801896e-02	5.0486144102867145e-07	4	2.0339788314112031e-01	1.1415910258100290e-06	4	9.8852668614922576e-02	4.9466188896673027e-07	4	0	smoothSolver	1.2114788695975259e-01	3.0895803222084548e-06	4	1	GAMG	8.3281062300331787e-01	2.7976786619151602e-04	4	1	smoothSolver	2.5843955832564408e-04	1.3730296274527599e-09	4	1
25                      	smoothSolver	1.8858208493968881e-01	2.7316119811982730e-06	4	1.7334705003493961e-01	1.1075242777134709e-06	4	8.7368520702668609e-02	8.9605300751462173e-07	4	0	smoothSolver	1.2045748586335880e-01	2.9975702938505041e-06	4	1	GAMG	2.0343752909051471e-01	1.5876565503184870e-04	3	1	smoothSolver	1.9854045784061401e-04	1.0287641128199199e-09	4	1
26                      	smoothSolver	2.5704149299054402e-01	4.1198303620617357e-06	4	1.4039657518281751e-01	8.4266110748303890e-07	4	8.5142936252878609e-02	1.1800596744831550e-06	4	0	smoothSolver	1.1042039690797530e-01	2.7016293394848369e-06	4	1	GAMG	1.5780795220002850e-01	1.0392875606492830e-04	4	1	smoothSolver	1.4703975731344959e-04	7.7042930147993880e-10	4	1
27                      	smoothSolver	2.1368529810748571e-01	3.2814553508848960e-06	4	1.0648336433913790e-01	4.7480175686057881e-07	4	9.4635809753253461e-02	1.2785628898431100e-06	4	0	smoothSolver	9.8050618727476738e-02	2.3827604348911169e-06	4	1	GAMG	2.6398904011972463e-01	1.4200197337460219e-04	4	1	smoothSolver	1.0573192643580160e-04	5.7736243801564104e-10	4	1
28                      	smoothSolver	9.8677895881617697e-02	9.2196674883417139e-07	4	7.6056456022798563e-02	2.3969489285557751e-07	4	9.2755912305188468e-02	1.1736496152917641e-06	4	0	smoothSolver	8.5073731336622910e-02	2.0693948248109238e-06	4	1	GAMG	3.6964297099892379e-01	1.5761918732187710e-04	4	1	smoothSolver	7.4265258053245135e-05	4.3241811041769571e-10	4	1
29                      	smoothSolver	7.2124112504946089e-02	1.0462452264744111e-06	4	7.8807216517594383e-02	4.1631748493130599e-07	4	8.0260649728481390e-02	9.0780146648585634e-07	4	0	smoothSolver	7.3149993940049424e-02	1.7842722158968769e-06	4	1	GAMG	5.5440770463312616e-01	1.5106225658416229e-04	4	1	smoothSolver	5.6263963265292522e-05	3.2268416592225712e-10	4	1
30                      	smoothSolver	1.1062918297138750e-01	2.0163998018515882e-06	4	9.9027060766796474e-02	7.1343701725963153e-07	4	6.0135924297515513e-02	6.0299191499543035e-07	4	0	smoothSolver	6.3151695819322048e-02	1.5374193810162090e-06	4	1	GAMG	5.2705184491972834e-01	2.8038914316512182e-04	3	1	smoothSolver	4.2116207067468283e-05	2.3830215650446000e-10	4	1
31                      	smoothSolver	1.1092341985992001e-01	2.0605330828423700e-06	4	1.1786550004592250e-01	9.6073356113441317e-07	4	4.5355792966528218e-02	3.7256441511186168e-07	4	0	smoothSolver	5.4876560059903177e-02	1.3253021104202819e-06	4	1	GAMG	2.6953760138643612e-01	1.5413005339924490e-04	4	1	smoothSolver	3.0926383053283098e-05	1.7463969832813929e-10	4	1
32                      	smoothSolver	7.9400541008955550e-02	1.4730993800261809e-06	4	1.3742093478936421e-01	1.1247869752252490e-06	4	3.4046387304071453e-02	2.5654630358738271e-07	4	0	smoothSolver	4.7772845141954123e-02	1.1422822989348230e-06	4	1	GAMG	3.5408758378284150e-01	2.1000208200766001e-04	4	1	smoothSolver	2.2358891552256140e-05	1.2782290933671529e-10	4	1
33                      	smoothSolver	4.4134169605661078e-02	8.1213682393293308e-07	4	1.4720094564431660e-01	1.1885698135243990e-06	4	2.5875538532965411e-02	2.2716625682391759e-07	4	0	smoothSolver	4.1411095333151009e-02	9.8265653576856224e-07	4	1	GAMG	5.1782456204043936e-01	2.6200486922934419e-04	4	1	smoothSolver	1.8809750723636660e-05	9.4585581380161374e-11	4	1
34                      	smoothSolver	2.7964193083820789e-02	2.9611515591447607e-07	4	1.4353002899750361e-01	1.1198766542887490e-06	4	2.2049369349509171e-02	2.3325716136331870e-07	4	0	smoothSolver	3.5638064597920509e-02	8.4083958747659980e-07	4	1	GAMG	2.8833082498985690e-01	1.2889992118229139e-04	4	1	smoothSolver	1.6390772290015830e-05	7.1641839469326556e-11	4	1
35                      	smoothSolver	2.9730421023395719e-02	2.2301976201978039e-07	4	1.2847946479700531e-01	9.6508008950673869e-07	4	2.0770046599982290e-02	2.3102392022832911e-07	4	0	smoothSolver	3.0552425280128321e-02	7.1766036713525691e-07	4	1	GAMG	1.3850246965071050e-01	4.1334549317705453e-05	4	1	smoothSolver	1.4447992181565981e-05	5.5520167102574970e-11	4	1
36                      	smoothSolver	2.7117538219218321e-02	2.4273300259504910e-07	4	1.1019220769373569e-01	8.1677300767247669e-07	4	2.0412629354211731e-02	2.0586719770621409e-07	4	0	smoothSolver	2.5925156717226502e-02	6.0676177770224580e-07	4	1	GAMG	1.0673674788991980e-01	3.0144579010147240e-05	3	1	smoothSolver	1.2491453863264440e-05	4.4154663294388508e-11	4	1
37                      	smoothSolver	1.9679852034789870e-02	2.1828548197388031e-07	4	9.8126979903671294e-02	7.2169106843192032e-07	4	2.1134086066156080e-02	1.6283859848641509e-07	4	0	smoothSolver	2.1817708893838501e-02	5.0906441324452761e-07	4	1	GAMG	1.2344524203385240e-01	5.3417647938846403e-05	3	1	smoothSolver	1.0579056699962300e-05	3.5915959422804482e-11	4	1
38                      	smoothSolver	1.2655501320906910e-02	2.2926749139257380e-07	4	9.8200798327694641e-02	6.9841721554152641e-07	4	1.9952263331323990e-02	1.2353979203646100e-07	4	0	smoothSolver	1.8375442218465831e-02	4.2764246348129738e-07	4	1	GAMG	1.1538677601083661e-01	6.9494090231358852e-05	3	1	smoothSolver	8.7224047267277674e-06	2.9561981953073882e-11	4	1
39                      	smoothSolver	1.0684602361492259e-02	2.2478825730960290e-07	4	1.0517841961451890e-01	7.4621436276670125e-07	4	1.7569651691042430e-02	1.0213960881336291e-07	4	0	smoothSolver	1.5528100018545909e-02	3.6062002843335223e-07	4	1	GAMG	7.7442688327058348e-02	7.7113914054948720e-05	3	1	smoothSolver	6.9429969520708782e-06	8.5300460357362959e-09	2	1
40                      	smoothSolver	9.8246174649072090e-03	2.0408191704414389e-07	4	1.1563124023017540e-01	8.4694282807026437e-07	4	1.3791278022484541e-02	8.0402727765203210e-08	4	0	smoothSolver	1.3164893342912700e-02	3.0522953774114811e-07	4	1	GAMG	3.8534596945891633e-02	2.7971035203219751e-05	4	1	smoothSolver	5.2867918433411494e-06	6.8791046184303791e-09	2	1
41                      	smoothSolver	9.6610824698817894e-03	1.6133701352760820e-07	4	1.2799614750155211e-01	9.7609380700631436e-07	4	9.9506719140867519e-03	6.2243733261757251e-08	4	0	smoothSolver	1.1190844160065839e-02	2.5910894427728918e-07	4	1	GAMG	3.9562808356495630e-02	3.6224705895276623e-05	4	1	smoothSolver	4.1264792086186629e-06	5.4880501528857283e-09	2	1
42                      	smoothSolver	7.3583444444395513e-03	9.8165529182528022e-08	4	1.4026986677200559e-01	1.1044804748880569e-06	4	8.0569890574143550e-03	3.9203178482481687e-08	4	0	smoothSolver	9.5346557544420778e-03	2.2049122917527499e-07	4	1	GAMG	5.7749226462373127e-02	3.9836458860526029e-05	4	1	smoothSolver	3.3099026643748258e-06	4.2980236823997778e-09	2	1
43                      	smoothSolver	4.2862868013883639e-03	3.0701788255601732e-08	4	1.4842495805100531e-01	1.2019464614276910e-06	4	6.0895690768425076e-03	4.5822991039840329e-06	2	0	smoothSolver	8.1404649944361359e-03	1.8801685177744270e-07	4	1	GAMG	6.2437029910112907e-02	3.4407152914736928e-05	4	1	smoothSolver	2.6151004349825979e-06	3.3401955142817691e-09	2	1
44                      	smoothSolver	3.4444037050835141e-03	5.0561397778778512e-08	4	1.5057296145738189e-01	1.2370167994861789e-06	4	5.0163164529605101e-03	2.8068077137400759e-06	2	0	smoothSolver	6.9628072617086206e-03	1.6061068229089991e-07	4	1	GAMG	5.0346023516801938e-02	2.0593496488132989e-05	4	1	smoothSolver	1.9767163844567648e-06	2.6551836288420271e-09	2	1
45                      	smoothSolver	3.8951662869682619e-03	8.9475505342746632e-08	4	1.4754775225144101e-01	1.2040705617445310e-06	4	3.8226461621656458e-03	3.0357357247418031e-06	2	0	smoothSolver	5.9640982436053114e-03	1.3740660189866499e-07	4	1	GAMG	3.0285448221235300e-02	1.2239624823043830e-05	3	1	smoothSolver	1.4206822189582569e-06	2.1453048298332588e-09	2	1
46                      	smoothSolver	3.9253973266342099e-03	9.4299134763857554e-08	4	1.4097691264485759e-01	1.1045323089501121e-06	4	2.9880567993427428e-03	1.7899090259790831e-08	4	0	smoothSolver	5.1134976033743347e-03	1.1770092920464340e-07	4	1	GAMG	1.6566470022022450e-02	8.5301420784075917e-06	4	1	smoothSolver	9.8573761506113091e-07	1.7362112542845430e-09	2	1
47                      	smoothSolver	3.1415631179457322e-03	7.0264559551848281e-08	4	1.3754859286783189e-01	9.5715274152505233e-07	4	2.3297362251456098e-03	1.4189911642804110e-08	4	0	smoothSolver	4.3861998807896967e-03	1.0092058930971200e-07	4	1	GAMG	1.5240872742886821e-02	1.4122908102339231e-05	4	1	smoothSolver	8.5903923123630669e-07	1.3830730376396680e-09	2	1
48                      	smoothSolver	2.1135010234030402e-03	3.1967230013166027e-08	4	1.3676142765556601e-01	8.2530508583555436e-07	4	2.2149586329166010e-03	1.0063617953861530e-08	4	0	smoothSolver	3.7626362718465580e-03	8.6598595920236440e-08	4	1	GAMG	1.7626363614837610e-02	1.6160646585249241e-05	4	1	smoothSolver	7.6827125734608934e-07	1.0787523170875550e-09	2	1
49                      	smoothSolver	1.3783960498811869e-03	1.0384913462519590e-08	4	1.3896911696194009e-01	7.2951147512740167e-07	4	1.9977218871962341e-03	8.7969552123211711e-09	4	0	smoothSolver	3.2274583295817351e-03	7.4353660339554613e-08	4	1	GAMG	1.6237314682714110e-02	1.3124197183036480e-05	4	1	smoothSolver	6.6458562944491964e-07	8.1927748965375323e-10	2	1
50                      	smoothSolver	1.7801211314357730e-03	3.6363133769306238e-08	4	1.4571967435217989e-01	6.5912028169422911e-07	4	1.7005070989567210e-03	1.0553680026196120e-08	4	0	smoothSolver	2.7687114950300899e-03	6.3872711908617857e-08	4	1	GAMG	1.1991000121303250e-02	6.7764696521048744e-06	4	1	smoothSolver	5.5071734565531562e-07	6.0955586786150415e-10	2	1
51                      	smoothSolver	2.0667073092821698e-03	4.6907944231455638e-08	4	1.5706571451576370e-01	6.3889583752743881e-07	4	1.5322979767241961e-03	1.2670290117111080e-08	4	0	smoothSolver	2.3762853200641038e-03	5.4895982437516292e-08	4	1	GAMG	8.7094808919223349e-03	2.4761235773673880e-06	3	1	smoothSolver	4.3659734297782571e-07	4.4690165811927370e-10	2	1
52                      	smoothSolver	1.7434262895452081e-03	4.1833714020857701e-08	4	1.5993093323317431e-01	6.0689073163496439e-07	4	1.3190018326551800e-03	1.2572982793195350e-08	4	0	smoothSolver	2.0404850070506329e-03	4.7204811551571663e-08	4	1	GAMG	7.3839608856394283e-03	3.9860608700178398e-06	4	1	smoothSolver	3.4749431826101902e-07	3.1661316621293582e-10	2	1
53                      	smoothSolver	1.0685009461283809e-03	2.7134420637765809e-08	4	1.4844201273302490e-01	5.2264176853571687e-07	4	1.0603975672065619e-03	1.0419092720052600e-08	4	0	smoothSolver	1.7534235790961300e-03	4.0612548428130463e-08	4	1	GAMG	6.7264991992155108e-03	5.3052892922911934e-06	4	1	smoothSolver	2.6945663864161762e-07	2.1592862026962999e-10	2	1
54                      	smoothSolver	6.4156652604404013e-04	1.0125393039532370e-08	4	1.2824301158897461e-01	4.1525543404369158e-07	4	8.1414680649212414e-04	7.3441380467405126e-09	4	0	smoothSolver	1.5079579991606510e-03	3.4958538638229109e-08	4	1	GAMG	6.5696277831007672e-03	4.7053320609502002e-06	4	1	smoothSolver	2.2717646046555839e-07	1.5250628093387690e-10	2	1
55                      	smoothSolver	4.7064525511907751e-04	3.6737434912301348e-09	4	1.0751849497145780e-01	3.4303507211795362e-07	4	6.2212648964918651e-04	4.2523029712696950e-09	4	0	smoothSolver	1.2977150892293241e-03	3.0104491099773742e-08	4	1	GAMG	5.8048201171191152e-03	3.5211713032320481e-06	4	1	smoothSolver	1.8186458540916331e-07	1.0716478988379610e-10	2	1
56                      	smoothSolver	5.0492329464663153e-04	1.0373814760733420e-08	4	9.6939770500500899e-02	3.0937158416403762e-07	4	5.0422610087302736e-04	1.7833711776583211e-09	4	0	smoothSolver	1.1171855224751150e-03	2.5932195853003490e-08	4	1	GAMG	4.7021176446270744e-03	1.2133398056460911e-06	4	1	smoothSolver	1.3771280065021769e-07	8.4621098143530029e-11	2	1
57                      	smoothSolver	4.7377819414449437e-04	1.1063898207176280e-08	4	9.2245005746262321e-02	9.1899357389008506e-05	2	4.2854310565893319e-04	1.7787336416027640e-09	4	0	smoothSolver	9.6177356476895358e-04	2.2341618296647511e-08	4	1	GAMG	3.7488940347131989e-03	3.3297978038123529e-06	3	1	smoothSolver	9.7690551062002015e-08	8.7651120057373508e-11	2	1
58                      	smoothSolver	2.8670958841386972e-04	7.5121789493937358e-09	4	9.1697991121222858e-02	2.8583644357767450e-07	4	3.7610846843202071e-04	1.9168451200039422e-09	4	0	smoothSolver	8.2775095940261056e-04	1.9248792736645290e-08	4	1	GAMG	2.6363344323850979e-03	1.5413529068016669e-06	4	1	smoothSolver	7.6734140600307982e-08	9.6845481704180396e-11	2	1
59                      	smoothSolver	2.0823898482340869e-04	2.4810530407670120e-09	4	9.9741469005057856e-02	2.9944490052468691e-07	4	3.0498401955507702e-04	1.6914323603346150e-09	4	0	smoothSolver	7.1212278487135013e-04	1.6583418331065029e-08	4	1	GAMG	1.6660524860356940e-03	1.5766108654838239e-06	4	1	smoothSolver	7.2424216937054050e-08	9.6437812840724489e-11	2	1
60                      	smoothSolver	2.2150905368423270e-04	1.7484436006588170e-09	4	1.1399407540904009e-01	3.1681884079049019e-07	4	2.1262341423026649e-04	1.4179466517909790e-09	4	0	smoothSolver	6.1244891875878544e-04	1.4286356077247539e-08	4	1	GAMG	9.7357855737139178e-04	3.2769348310938041e-07	5	1	smoothSolver	7.4526618204511043e-08	8.9608625216185607e-11	2	1
61                      	smoothSolver	2.7060231449292031e-04	3.9083548908609198e-09	4	1.3006285723879901e-01	3.3888466568416488e-07	4	1.3544521474424139e-04	1.0989712422182721e-09	4	0	smoothSolver	5.2691041586100417e-04	1.2307307213907170e-08	4	1	GAMG	9.0422941031238790e-04	3.8095753817381842e-07	4	1	smoothSolver	7.1210913062320519e-08	8.0717367649274011e-11	2	1
62                      	smoothSolver	2.4016192138257621e-04	3.8996334434788893e-09	4	1.4107654778147749e-01	1.3994265011904269e-04	2	1.1682067520068360e-04	8.4145653991123845e-10	4	0	smoothSolver	4.5334073880168101e-04	1.0602687485710819e-08	4	1	GAMG	1.0446817673981370e-03	8.8358506458816922e-07	3	1	smoothSolver	6.3681014664812269e-08	7.9956332502574755e-11	2	1
63                      	smoothSolver	1.4499408271397571e-04	2.3610660358588850e-09	4	1.4379142893119581e-01	1.4322542846619330e-04	2	1.0555055544347290e-04	6.7073887532277183e-10	4	0	smoothSolver	3.9009242757525670e-04	9.1346705647704783e-09	4	1	GAMG	1.0811470967454491e-03	3.9782843515476721e-07	4	1	smoothSolver	5.7905815709478893e-08	8.7043645567375391e-11	2	1
64                      	smoothSolver	6.6443454810026216e-05	3.4556911904501619e-10	4	1.3944952453203180e-01	3.8465960718733739e-07	4	9.0895652812165886e-05	6.0269515266810260e-10	4	0	smoothSolver	3.3575782042614667e-04	7.8710099406342348e-09	4	1	GAMG	9.0410602973209212e-04	4.0229331473589358e-07	4	1	smoothSolver	5.5179008497918428e-08	9.4355946462974731e-11	2	1
65                      	smoothSolver	8.7364910770920134e-05	1.6380061127958850e-09	4	1.3143883034895920e-01	3.7379984842713241e-07	4	7.9822683809877302e-05	6.2483369445410135e-10	4	0	smoothSolver	2.8910193130759072e-04	6.7829498054628414e-09	4	1	GAMG	6.1526273510222973e-04	2.3735654044988281e-07	4	1	smoothSolver	5.4770394199458948e-08	1.0050809571928210e-10	2	1
66                      	smoothSolver	1.2217626648930430e-04	2.7764355864352920e-09	4	1.1679268027256280e-01	3.5327960739491493e-07	4	8.5579053568510713e-05	7.0218103925219164e-10	4	0	smoothSolver	2.4907953594569812e-04	5.8456239056338022e-09	4	1	GAMG	5.1441834022550553e-04	2.7256563889500589e-07	3	1	smoothSolver	5.5842669280623262e-08	1.0500211731875680e-10	2	1
67                      	smoothSolver	1.2703866709796110e-04	3.0693663517914579e-09	4	1.0323889036360710e-01	3.2775000825013188e-07	4	8.4178051774075579e-05	7.9022936021855674e-10	4	0	smoothSolver	2.1470654424538151e-04	5.0377109514429544e-09	4	1	GAMG	4.8692990968885721e-04	1.5229000262318790e-07	4	1	smoothSolver	5.6436949485156647e-08	1.0744838290619120e-10	2	1
68                      	smoothSolver	1.0725022028162430e-04	2.6917168043706380e-09	4	9.5026552329054756e-02	9.3887922472820980e-05	2	7.9505225424677113e-05	8.4894705238024793e-10	4	0	smoothSolver	1.8505640128037870e-04	4.3410472967278943e-09	4	1	GAMG	4.4375776634608043e-04	2.5391569333833088e-07	4	1	smoothSolver	5.6411062453574557e-08	1.0765152007270390e-10	2	1
69                      	smoothSolver	7.2227589875891539e-05	1.9490918395962869e-09	4	9.1720213553878133e-02	3.2835719359121549e-07	4	7.7899883174075208e-05	8.5206918607574810e-10	4	0	smoothSolver	1.5946197582014630e-04	3.7401864740418926e-09	4	1	GAMG	3.5305190581695107e-04	2.7829669832465501e-07	4	1	smoothSolver	5.5670202454315862e-08	1.0563425187467680e-10	2	1
70                      	smoothSolver	4.9227974557986917e-05	1.1401271720548269e-09	4	9.8752080070008963e-02	9.3557010565219624e-05	2	7.4089829597822460e-05	7.9192569611115971e-10	4	0	smoothSolver	1.3736998806909359e-04	3.2219720355782520e-09	4	1	GAMG	2.5166841792885090e-04	2.3796307374456599e-07	4	1	smoothSolver	5.4183285852916178e-08	1.0160796186589360e-10	2	1
71                      	smoothSolver	3.2917787922243892e-05	4.7240516296037702e-10	4	1.1314487755876181e-01	9.8556783452982376e-05	2	6.6348192172051312e-05	6.7810992403910877e-10	4	0	smoothSolver	1.1831326063602660e-04	2.7751456286737872e-09	4	1	GAMG	2.2831412652975851e-04	1.6821494330833580e-07	4	1	smoothSolver	5.1980182010298231e-08	9.5915069505496167e-11	2	1
72                      	smoothSolver	2.4537725690631890e-05	1.7288334532046639e-08	2	1.2972396505725250e-01	1.1054488765639371e-04	2	5.5789349288908402e-05	5.3176848585555465e-10	4	0	smoothSolver	1.0188890406527501e-04	2.3899940073489008e-09	4	1	GAMG	2.0376161877582320e-04	1.0069230603413599e-07	4	1	smoothSolver	4.9138516149844541e-08	8.8962830974440502e-11	2	1
73                      	smoothSolver	2.0569349556070689e-05	1.6830063973270179e-10	4	1.4657488257551021e-01	1.2378449474198400e-04	2	4.4320032181138968e-05	3.7847586690414972e-10	4	0	smoothSolver	8.7743895795387673e-05	2.0580989794398099e-09	4	1	GAMG	1.9547775225548891e-04	1.4871020126157669e-07	3	1	smoothSolver	4.5767513461141568e-08	8.1164943801616542e-11	2	1
74                      	smoothSolver	1.8494578195564150e-05	2.0676081535194429e-10	4	1.6172533299184710e-01	1.3440981811729301e-04	2	3.3526851966456290e-05	2.4118886876294178e-10	4	0	smoothSolver	7.5566877155399490e-05	1.7721622290462080e-09	4	1	GAMG	1.6333663671272311e-04	1.2311047824678809e-07	3	1	smoothSolver	4.2205922042316160e-08	7.2900852457675882e-11	2	1
75                      	smoothSolver	1.5844326311258151e-05	1.8930502477050539e-10	4	1.7074350628541041e-01	1.3921075339661811e-04	2	2.7419681096893368e-05	1.4648471131423749e-10	4	0	smoothSolver	6.5083988847622221e-05	1.5258394213228780e-09	4	1	GAMG	1.2261477631906080e-04	4.7346076857704051e-08	4	1	smoothSolver	3.8548560519300483e-08	6.4497002602928095e-11	2	1
76                      	smoothSolver	1.2832224426101181e-05	1.6327645238931209e-10	4	1.7200356203262371e-01	1.4041937782330159e-04	2	2.6265830633332830e-05	1.2856067870667850e-10	4	0	smoothSolver	5.6056614832717873e-05	1.3136408561457951e-09	4	1	GAMG	8.8663866974202934e-05	5.1114810349168538e-08	4	1	smoothSolver	3.4534006522436613e-08	5.6217602916186338e-11	2	1
77                      	smoothSolver	1.1162520292356041e-05	1.3224432746366389e-10	4	1.6431501633692161e-01	1.3695645869714329e-04	2	2.4434302810080230e-05	1.2700961314707919e-10	4	0	smoothSolver	4.8278926194325513e-05	1.1308366886175960e-09	4	1	GAMG	7.5979410796492050e-05	4.4770270572806431e-08	4	1	smoothSolver	3.0355015441918752e-08	4.8272082378798552e-11	2	1
78                      	smoothSolver	9.2943541723548074e-06	9.2588603195853145e-11	4	1.5264475565126240e-01	1.2757753349215150e-04	2	2.3254358266922061e-05	1.2194355844122811e-10	4	0	smoothSolver	4.1574972848164222e-05	9.7334997691023688e-10	4	1	GAMG	7.1761631814270518e-05	2.9833283433716842e-08	4	1	smoothSolver	2.6501578016160660e-08	4.0821634404429747e-11	2	1
79                      	smoothSolver	7.0159368820135430e-06	5.0788418814534647e-11	4	1.4511130634462310e-01	1.1576620639800440e-04	2	2.0880042472417940e-05	1.1006050611235599e-10	4	0	smoothSolver	3.5795005427986252e-05	8.3768839782577420e-10	4	1	GAMG	7.0334137009654755e-05	6.1445183563041892e-08	3	1	smoothSolver	2.2968819854114090e-08	3.4043089718103962e-11	2	1
80                      	smoothSolver	5.2350706555812552e-06	5.9192474272716189e-09	2	1.4231285698699930e-01	1.0436153545224989e-04	2	1.7789356350212581e-05	9.3856774113448957e-11	4	0	smoothSolver	3.0811636723949668e-05	7.2084529474814840e-10	4	1	GAMG	5.8675907291648159e-05	2.5411763751823380e-08	3	1	smoothSolver	1.9472669412608240e-08	2.8115866915762360e-11	2	1