/*--------------------------------*- C++ -*----------------------------------*\
| =========                 |                                                 |
| \\      /  F ield         | OpenFOAM: The Open Source CFD Toolbox           |
|  \\    /   O peration     | Version:  v1812                                 |
|   \\  /    A nd           | Web:      www.OpenFOAM.com                      |
|    \\/     M anipulation  |                                                 |
\*---------------------------------------------------------------------------*/
FoamFile
{
    version     2.0;
    format      ascii;
    class       volScalarField;
    location    "1000";
    object      k;
}
// * * * * * * * * * * * * * * * * * * * * * * * * * * * * * * * * * * * * * //

dimensions      [0 2 -2 0 0 0 0];


internalField   nonuniform List<scalar> 
40000
(
0.003779860246356265
0.003809485013756392
0.003838003473867002
0.003865329685286489
0.003891474664684163
0.003916475605661959
0.003940371634514729
0.003963201351490891
0.003985003013375143
0.004005813703707581
0.004025668865499285
0.00404460248134008
0.004062647268630564
0.004079834647546975
0.004096194853555372
0.004111757015181203
0.004126549221219446
0.004140598584671215
0.004153931298139437
0.004166572682493973
0.004178547229792044
0.004189878641358041
0.004200589861563121
0.004210703108233693
0.004220239899957197
0.004229221081079959
0.004237666844444898
0.004245596752573896
0.004253029757176588
0.004259984217622564
0.004266477918153488
0.004272528084396036
0.004278151398931846
0.004283364016356158
0.004288181577649505
0.004292619224160728
0.004296691611026382
0.004300412920405557
0.004303796874088959
0.004306856746157579
0.004309605375050874
0.004312055175534618
0.004314218150616123
0.004316105902766382
0.004317729645595745
0.004319100215009003
0.004320228079773104
0.004321123353557239
0.004321795804188657
0.004322254865695973
0.004322509648510737
0.004322568948674702
0.00432244126100938
0.004322134786006689
0.004321657441799168
0.004321016875501708
0.004320220467085881
0.00431927534730039
0.004318188398763913
0.004316966265837652
0.0043156153702386
0.004314141900288916
0.004312551834253992
0.004310850935331151
0.004309044739252913
0.004307138586480277
0.004305137572660262
0.004303046561128187
0.004300870191371126
0.004298612777137795
0.004296278383376416
0.00429387073872346
0.004291393116610857
0.004288848431133571
0.0042862391496051
0.004283567291616112
0.00428083446396286
0.004278041955329541
0.004275190873031744
0.004272282672015222
0.004269319601789453
0.004266305425459487
0.004263247642008639
0.004260157663317753
0.004257054308505836
0.004253966508665686
0.004250937327902062
0.00424803174118195
0.004245347442683415
0.004243035534176014
0.004241330858318715
0.004240592812063696
0.00424137922528259
0.004244516015276531
0.004251180312162356
0.00426307917639043
0.004282410490138274
0.004311764292553708
0.004353893130438551
0.004410156381919298
0.003779860246356611
0.003809485013755558
0.003838003473864175
0.003865329685280938
0.003891474664675157
0.003916475605648746
0.003940371634496518
0.003963201351466852
0.003985003013344415
0.004005813703669227
0.004025668865452343
0.004044602481283499
0.004062647268563264
0.004079834647467787
0.004096194853463078
0.004111757015074512
0.004126549221096986
0.004140598584531565
0.004153931297981053
0.004166572682315288
0.004178547229591321
0.004189878641133557
0.004200589861312931
0.004210703107955903
0.004220239899649636
0.004229221080740531
0.004237666844071188
0.004245596752163585
0.004253029756726995
0.004259984217131117
0.004266477917617216
0.004272528083812089
0.004278151398296931
0.004283364015667116
0.00428818157690268
0.004292619223352604
0.004296691610152909
0.004300412919462804
0.004303796873072416
0.004306856745062843
0.004309605373872896
0.00431205517426842
0.004314218149256047
0.004316105901306706
0.004317729644030112
0.004319100213330773
0.004320228077975018
0.004321123351631564
0.004321795802126941
0.004322254863489104
0.00432250964614877
0.004322568946146605
0.004322441258303426
0.004322134783109184
0.004321657438695841
0.004321016872175702
0.004320220463518746
0.004319275343471342
0.00431818839464861
0.00431696626140873
0.004315615365464355
0.0043141418951309
0.004312551828669355
0.004310850929266027
0.004309044732643468
0.004307138579251614
0.00430513756471489
0.004303046552353451
0.004300870181625303
0.004298612766238932
0.004296278371113317
0.004293870724815838
0.004291393100710853
0.004288848412810355
0.004286239128312956
0.004283567266666542
0.004280834434473408
0.004278041920153753
0.004275190830650384
0.0042722826203326
0.004269319538025618
0.004266305345348069
0.004263247539749703
0.004260157530005436
0.004257054130786539
0.004253966266766068
0.004250936990543777
0.004248031261135612
0.004245346747335505
0.004243034508557789
0.00424132932902921
0.004240590514620911
0.004241375759120646
0.004244510786954649
0.004251172503173673
0.004263067775704688
0.004282394266063482
0.004311741878433212
0.004353863166556724
0.004410117928384394
0.003779860246356843
0.003809485013754783
0.003838003473861608
0.003865329685275789
0.003891474664666584
0.003916475605635838
0.003940371634478302
0.003963201351442242
0.003985003013312297
0.004005813703628282
0.004025668865401303
0.004044602481220842
0.004062647268487498
0.0040798346473772
0.00409619485335592
0.00411175701494888
0.004126549220950823
0.004140598584362766
0.004153931297787227
0.004166572682094117
0.004178547229340026
0.004189878640849585
0.004200589860993088
0.004210703107597361
0.004220239899248758
0.004229221080294175
0.004237666843575243
0.004245596751614536
0.00425302975612022
0.004259984216462676
0.004266477916881934
0.004272528083005527
0.0042781513974133
0.004283364014701399
0.004288181575848413
0.004292619222204097
0.004296691608902908
0.00430041291810484
0.004303796871598307
0.004306856743465202
0.004309605372142458
0.004312055172396621
0.004314218147232428
0.004316105899121121
0.004317729641670754
0.004319100210785485
0.004320228075230206
0.004321123348672755
0.004321795798938008
0.004322254860052661
0.00432250964244561
0.004322568942154953
0.004322441254000566
0.004322134778467124
0.004321657433686447
0.004321016866763932
0.00432022045766643
0.004319275337134923
0.004318188387775342
0.004316966253939051
0.004315615357327961
0.004314141886238893
0.004312551818923442
0.004310850918536408
0.004309044720773525
0.004307138566055651
0.004305137549939284
0.004303046535704275
0.004300870162722274
0.004298612744578714
0.004296278346111427
0.004293870695671783
0.004291393066418992
0.004288848372116173
0.004286239079618798
0.004283567207962807
0.004280834363217491
0.004278041833110542
0.004275190723698125
0.004272282488043847
0.004269319373713542
0.004266305139532528
0.004263247280384612
0.004260157200557671
0.004257053708276036
0.004253965719589416
0.004250936272200613
0.004248030305067774
0.004245345455609169
0.004243032731519819
0.004241326849465982
0.004240587012176417
0.004241370761294602
0.004244503566214542
0.004251162136431798
0.004263053356118204
0.004282374798686092
0.00431171642111001
0.004353831054170851
0.004410078985775821
0.00377986024635682
0.00380948501375376
0.003838003473858833
0.00386532968527046
0.003891474664657817
0.00391647560562265
0.003940371634459623
0.003963201351416854
0.003985003013278966
0.004005813703585469
0.004025668865347607
0.004044602481154434
0.004062647268406723
0.004079834647279974
0.004096194853240283
0.004111757014812472
0.004126549220791352
0.004140598584177575
0.00415393129757363
0.004166572681849143
0.004178547229060549
0.004189878640532303
0.00420058986063436
0.004210703107193528
0.004220239898795602
0.004229221079787651
0.004237666843010479
0.004245596750987059
0.004253029755424438
0.004259984215693627
0.004266477916033217
0.004272528082071616
0.004278151396386922
0.004283364013576338
0.004288181574616426
0.004292619220858144
0.004296691607433656
0.004300412916504245
0.004303796869855761
0.00430685674157146
0.004309605370085423
0.004312055170165479
0.004314218144813479
0.00431610589650136
0.004317729638834708
0.00431910020771735
0.004320228071912104
0.004321123345085673
0.004321795795060581
0.004322254855861836
0.004322509637915787
0.004322568937256832
0.004322441248703809
0.0043221347727334
0.004321657427477862
0.004321016860032073
0.004320220450358667
0.004319275329190799
0.004318188379120565
0.004316966244489488
0.004315615346983426
0.004314141874870655
0.004312551806389374
0.004310850904645397
0.004309044705293462
0.004307138548710092
0.004305137530344953
0.004303046513416337
0.004300870137160253
0.004298612714967751
0.004296278311551179
0.004293870654918916
0.004291393017906353
0.004288848313884612
0.004286239009169022
0.004283567122151321
0.004280834258075451
0.004278041703607684
0.004275190563472746
0.004272282288810689
0.004269319125407135
0.00426630482822035
0.004263246888648712
0.004260156705284216
0.004257053078292218
0.004253964913212621
0.004250935230224486
0.004248028945381906
0.004245343660725058
0.004243030326899075
0.004241323589757492
0.004240582546272395
0.004241364585414558
0.004244494887203063
0.004251150017997218
0.004263037091294109
0.004282353742156358
0.00431169017248409
0.004353799746727813
0.00441004333437748
0.003779860246356563
0.003809485013752474
0.003838003473855786
0.003865329685264841
0.00389147466464873
0.003916475605609082
0.003940371634440466
0.003963201351390837
0.003985003013244831
0.00400581370354156
0.004025668865292516
0.004044602481086172
0.004062647268323634
0.004079834647179752
0.004096194853120989
0.004111757014671452
0.004126549220626347
0.00414059858398555
0.004153931297351965
0.00416657268159439
0.004178547228769655
0.004189878640201395
0.00420058986025986
0.00421070310677115
0.004220239898321118
0.00422922107925636
0.004237666842417391
0.004245596750327048
0.004253029754691628
0.004259984214882427
0.004266477915136764
0.004272528081083761
0.004278151395299704
0.004283364012382919
0.004288181573307659
0.004292619219426288
0.004296691605868254
0.004300412914796444
0.004303796867993571
0.004306856739544665
0.004309605367880264
0.004312055167769903
0.004314218142211835
0.004316105893678991
0.004317729635773903
0.004319100204400096
0.004320228068317856
0.004321123341192605
0.004321795790844003
0.004322254851295098
0.004322509632969171
0.004322568931896129
0.00432244124289377
0.00432213476642883
0.004321657420634494
0.004321016852592573
0.00432022044226075
0.004319275320362722
0.004318188369473454
0.004316966233922594
0.004315615335376301
0.0043141418620672
0.004312551792217503
0.004310850888871574
0.004309044687633134
0.004307138528823778
0.004305137507758167
0.004303046487578242
0.004300870107348999
0.004298612680214941
0.004296278270731856
0.004293870606472633
0.004291392959861695
0.00428884824377285
0.004286238923836035
0.004283567017626828
0.004280834129346607
0.00427804154432594
0.004275190365623776
0.004272282042015304
0.00426931881708495
0.004266304441244139
0.00426324640169671
0.00426015609059499
0.004257052299041462
0.004253963920998051
0.0042509339576908
0.004248027301135706
0.004245341516422194
0.004243027495715828
0.004241319815583695
0.004240577471480728
0.004241357708944996
0.0042444854055976
0.004251137042840355
0.004263020147287615
0.004282332551919473
0.004311664867559974
0.004353771198311059
0.004410013047571062
0.003779860246356169
0.003809485013751072
0.003838003473852689
0.003865329685259279
0.003891474664639827
0.003916475605595856
0.003940371634421845
0.003963201351365565
0.003985003013211692
0.004005813703498898
0.004025668865238985
0.004044602481019766
0.004062647268242762
0.004079834647082088
0.004096194853004653
0.004111757014533763
0.004126549220465111
0.004140598583797695
0.004153931297134924
0.004166572681344686
0.004178547228484276
0.004189878639876445
0.00420058985989178
0.004210703106355625
0.004220239897853918
0.004229221078732772
0.004237666841832383
0.004245596749675492
0.004253029753967565
0.004259984214080259
0.004266477914249496
0.004272528080105245
0.004278151394221793
0.004283364011198756
0.004288181572007848
0.004292619218003055
0.00429669160431082
0.004300412913095881
0.004303796866137482
0.0043068567375227
0.004309605365678159
0.004312055165375376
0.00431421813960864
0.004316105890852076
0.00431772963270487
0.00431910020107031
0.004320228064705946
0.004321123337275874
0.004321795786596671
0.004322254846689346
0.004322509627973889
0.004322568926475352
0.004322441237010579
0.004322134760035367
0.00432165741368423
0.004321016845024593
0.004320220434008953
0.004319275311350756
0.004318188359606206
0.004316966223092128
0.004315615323453159
0.004314141848882572
0.004312551777585458
0.004310850872538092
0.004309044669287917
0.004307138508096311
0.004305137484127317
0.00430304646043922
0.004300870075906894
0.004298612643398972
0.004296278227299177
0.004293870554693459
0.004291392897547274
0.004288848168179343
0.004286238831454231
0.004283566904036846
0.004280833988967792
0.004278041370094409
0.004275190148632821
0.004272281770770951
0.004269318477687547
0.004266304014931914
0.004263245865247506
0.004260155414081005
0.004257051443216248
0.004253962834857775
0.00425093257121992
0.004248025520827281
0.004245339212776349
0.004243024483137518
0.004241315844865656
0.004240572201850104
0.004241350673146392
0.004244475842672522
0.004251124162000664
0.004263003701037053
0.004282312595205046
0.004311641979281573
0.004353746827477301
0.004409989282467515
0.003779860246355735
0.003809485013749713
0.003838003473849785
0.003865329685254122
0.003891474664631628
0.003916475605583716
0.003940371634404779
0.003963201351342422
0.003985003013181368
0.004005813703459851
0.004025668865190001
0.004044602480958978
0.004062647268168732
0.004079834646992648
0.004096194852898104
0.004111757014407604
0.004126549220317348
0.004140598583625465
0.00415393129693589
0.004166572681115599
0.004178547228222377
0.004189878639578101
0.004200589859553704
0.004210703105973818
0.004220239897424447
0.004229221078251267
0.004237666841294147
0.004245596749075766
0.004253029753300771
0.004259984213341215
0.004266477913431615
0.004272528079202833
0.004278151393227164
0.004283364010105549
0.004288181570807172
0.004292619216687674
0.004296691602870504
0.004300412911522306
0.004303796864418848
0.004306856735649313
0.00430960536363641
0.00431205516315371
0.004314218137191536
0.004316105888225279
0.004317729629850795
0.004319100197971207
0.004320228061341365
0.004321123333624116
0.004321795782632994
0.004322254842387066
0.004322509623303097
0.004322568921401384
0.004322441231497935
0.004322134754037673
0.004321657407156643
0.004321016837907955
0.004320220426239107
0.004319275302853493
0.004318188350288675
0.00431696621284892
0.004315615312157571
0.004314141836368615
0.004312551763670493
0.004310850856971417
0.004309044651762378
0.004307138488246314
0.004305137461431947
0.004303046434303488
0.004300870045529116
0.004298612607719741
0.004296278185072007
0.004293870504183066
0.004291392836558788
0.00428884809396255
0.004286238740487602
0.004283566791878125
0.004280833850004235
0.004278041197222786
0.004275189932905374
0.00427228150066949
0.00426931813931898
0.00426630358964088
0.004263245330072503
0.004260154739635509
0.004257050591326009
0.004253961756357482
0.004250931199319293
0.00424802376748762
0.004245336957483485
0.004243021555462052
0.004241312020210419
0.004240567179074503
0.004241344048026409
0.00424446694703469
0.004251112345101327
0.004262988919725414
0.004282295171575862
0.004311622814049732
0.004353727733012636
0.004409972665852313
0.003779860246355337
0.003809485013748531
0.003838003473847307
0.003865329685249754
0.003891474664624705
0.003916475605573479
0.0039403716343904
0.003963201351322928
0.003985003013155838
0.004005813703426966
0.004025668865148756
0.004044602480907769
0.00406264726810637
0.004079834646917273
0.004096194852808298
0.004111757014301225
0.004126549220192726
0.004140598583480142
0.004153931296767904
0.004166572680922166
0.004178547228001173
0.004189878639326017
0.004200589859267961
0.00421070310565099
0.004220239897061197
0.004229221077843858
0.00423766684083857
0.004245596748567976
0.004253029752735976
0.00425998421271502
0.004266477912738351
0.004272528078437669
0.004278151392383465
0.00428336400917792
0.004288181569787925
0.004292619215570664
0.00429669160164687
0.004300412910184955
0.004303796862957546
0.00430685673405579
0.004309605361898844
0.004312055161262204
0.004314218135132608
0.004316105885986658
0.004317729627417216
0.004319100195327316
0.004320228058469395
0.004321123330505246
0.0043217957792457
0.004322254838708135
0.004322509619306482
0.004322568917056792
0.004322441226774461
0.004322134748894604
0.004321657401554843
0.004321016831795385
0.004320220419559383
0.004319275295541295
0.00431818834226192
0.00431696620401438
0.004315615302402947
0.004314141825546135
0.004312551751617688
0.004310850843464243
0.004309044636525748
0.004307138470953034
0.004305137441612513
0.004303046411424217
0.004300870018865034
0.004298612576315274
0.004296278147799627
0.004293870459470006
0.004291392782414175
0.004288848027890595
0.004286238659289734
0.004283566691516381
0.004280833725375815
0.004278041041872362
0.004275189738709329
0.004272281257196075
0.004269317834022849
0.004266303205743854
0.004263244847053525
0.004260154131354348
0.004257049824182783
0.004253960787361984
0.004250929970692276
0.004248022203969708
0.004245334957256799
0.004243018976408703
0.004241308678829421
0.004240562834431443
0.00424133838273503
0.004244459378183075
0.004251102470516262
0.004262976860067626
0.004282281426350597
0.004311608455023973
0.004353714695152597
0.00440996338855302
0.003779860246355029
0.003809485013747638
0.003838003473845443
0.003865329685246482
0.003891474664619524
0.003916475605565821
0.003940371634379652
0.003963201351308356
0.003985003013136761
0.004005813703402388
0.004025668865117943
0.004044602480869501
0.004062647268059771
0.004079834646860935
0.004096194852741182
0.004111757014221701
0.004126549220099571
0.004140598583371492
0.004153931296642309
0.004166572680777521
0.004178547227835755
0.004189878639137473
0.004200589859054224
0.004210703105409475
0.004220239896789406
0.004229221077538987
0.004237666840497604
0.004245596748187879
0.004253029752313136
0.004259984212246146
0.004266477912219149
0.004272528077864539
0.004278151391751359
0.004283364008482823
0.00428818156902398
0.004292619214733294
0.00429669160072931
0.004300412909181915
0.004303796861861209
0.004306856732859963
0.004309605360594495
0.004312055159841896
0.004314218133586039
0.00431610588430455
0.004317729625587917
0.004319100193339159
0.004320228056308823
0.004321123328157915
0.004321795776695147
0.004322254835936625
0.004322509616294071
0.004322568913780218
0.004322441223210072
0.004322134745010955
0.004321657397321916
0.004321016827172907
0.004320220414503759
0.004319275290001933
0.004318188336174945
0.004316966197307201
0.004315615294987924
0.00431414181730735
0.004312551742427846
0.004310850833146859
0.004309044624863709
0.004307138457687982
0.004305137426371778
0.004303046393784446
0.004300869998249475
0.004298612551961453
0.004296278118808157
0.004293870424583088
0.004291392740037215
0.00428884797602237
0.004286238595363234
0.004283566612289289
0.004280833626751033
0.004278040918669806
0.004275189584418706
0.004272281063481587
0.004269317590893443
0.004266302899903342
0.004263244462368914
0.004260153647375593
0.004257049214969219
0.004253960019960206
0.004250929001406868
0.004248020976715985
0.004245333397312388
0.004243016981280621
0.004241306119954656
0.004240559548154357
0.004241334159349223
0.004244453796775116
0.004251095345600279
0.004262968438892084
0.00428227230602079
0.004311599734290324
0.004353708197936302
0.004409961310964093
0.003779860246354847
0.003809485013747108
0.003838003473844338
0.003865329685244541
0.003891474664616452
0.003916475605561283
0.003940371634373282
0.003963201351299722
0.003985003013125468
0.004005813703387832
0.004025668865099699
0.004044602480846838
0.004062647268032188
0.004079834646827578
0.004096194852701448
0.00411175701417461
0.004126549220044412
0.004140598583307142
0.004153931296567931
0.004166572680691838
0.004178547227737766
0.004189878639025765
0.004200589858927586
0.00421070310526636
0.004220239896628339
0.0042292210773583
0.004237666840295504
0.004245596747962577
0.004253029752062467
0.004259984211968185
0.004266477911911314
0.004272528077524732
0.004278151391376534
0.004283364008070645
0.004288181568570912
0.004292619214236673
0.004296691600185052
0.004300412908586935
0.00430379686121078
0.004306856732150476
0.004309605359820484
0.004312055158998999
0.004314218132668034
0.004316105883305952
0.004317729624501712
0.004319100192158387
0.004320228055025331
0.004321123326763104
0.004321795775179093
0.004322254834288647
0.004322509614502126
0.004322568911830164
0.004322441221087651
0.004322134742696865
0.004321657394797967
0.004321016824414278
0.004320220411483638
0.004319275286689083
0.004318188332529592
0.004316966193284096
0.004315615290532189
0.004314141812345742
0.004312551736880083
0.004310850826900552
0.004309044617780152
0.004307138449601899
0.004305137417042787
0.004303046382939556
0.004300869985514922
0.004298612536841121
0.00429627810071648
0.004293870402697686
0.004291392713313277
0.004288847943146528
0.004286238554648539
0.004283566561603462
0.004280833563400721
0.00427804083925415
0.004275189484674782
0.004272280937981366
0.004269317433163269
0.004266302701424828
0.004263244212916632
0.004260153334157355
0.004257048822068442
0.004253959527513998
0.004250928383669268
0.004248020201673385
0.00424533242364331
0.004243015754574223
0.004241304576537437
0.004240557613873006
0.004241331749522545
0.004244450714150221
0.004251091588625621
0.004262964341157386
0.004282268485357722
0.004311597186658735
0.004353708434077379
0.004409966050475448
0.00377986024635481
0.003809485013746989
0.003838003473844081
0.003865329685244079
0.003891474664615713
0.003916475605560192
0.003940371634371752
0.003963201351297641
0.003985003013122753
0.004005813703384319
0.004025668865095312
0.004044602480841372
0.004062647268025552
0.004079834646819539
0.004096194852691895
0.004111757014163277
0.004126549220031162
0.004140598583291673
0.004153931296550077
0.004166572680671267
0.00417854722771427
0.004189878638998978
0.00420058985889725
0.004210703105232089
0.0042202398965898
0.004229221077315093
0.004237666840247205
0.004245596747908783
0.004253029752002646
0.00425998421190192
0.004266477911837954
0.004272528077443845
0.004278151391287343
0.004283364007972681
0.004288181568463257
0.004292619214118799
0.004296691600055899
0.004300412908445891
0.004303796861056613
0.004306856731982455
0.004309605359637188
0.004312055158799512
0.004314218132450758
0.004316105883069661
0.004317729624244639
0.004319100191878885
0.004320228054721369
0.00432112332643257
0.004321795774819477
0.004322254833897265
0.004322509614075894
0.004322568911365329
0.004322441220580591
0.004322134742142155
0.004321657394190856
0.004321016823747636
0.004320220410749844
0.004319275285879097
0.00431818833163137
0.00431696619228387
0.004315615289412904
0.004314141811083643
0.004312551735449361
0.004310850825263481
0.004309044615889535
0.004307138447401155
0.004305137414446776
0.004303046379851654
0.004300869981800116
0.004298612532317519
0.004296278095168616
0.004293870395817961
0.00429139270470788
0.004288847932317501
0.004286238540953072
0.00428356654422696
0.004280833541316081
0.004278040811171398
0.004275189448994125
0.004272280892711042
0.004269317375972853
0.004266302629401248
0.004263244122716229
0.00426015322186909
0.00425704868330261
0.004253959357341868
0.00425092817669831
0.004248019952900215
0.004245332128934145
0.004243015412633228
0.004241304194442252
0.004240557213933365
0.00424133138039214
0.004244450422196617
0.004251091558286246
0.004262964963977014
0.004282270347529709
0.004311601097133837
0.004353715461304286
0.004409977293544777
0.00377986024635492
0.003809485013747285
0.00383800347384468
0.003865329685245125
0.003891474664617365
0.003916475605562627
0.003940371634375169
0.003963201351302269
0.003985003013128824
0.004005813703392129
0.004025668865105127
0.004044602480853543
0.004062647268040399
0.004079834646837475
0.004096194852713296
0.004111757014188624
0.004126549220060892
0.004140598583326336
0.004153931296590187
0.004166572680717458
0.004178547227767141
0.004189878639059254
0.004200589858965633
0.004210703105309394
0.004220239896676852
0.004229221077412801
0.004237666840356545
0.004245596748030764
0.004253029752138413
0.004259984212052602
0.004266477912004885
0.004272528077628295
0.004278151391490854
0.004283364008196698
0.004288181568709565
0.004292619214389047
0.004296691600352143
0.004300412908770038
0.004303796861411037
0.004306856732369372
0.004309605360059348
0.004312055159259527
0.004314218132951804
0.00431610588361488
0.004317729624837684
0.004319100192523572
0.004320228055421979
0.0043211233271937
0.004321795775646262
0.004322254834795275
0.004322509615051312
0.004322568912425143
0.004322441221732178
0.004322134743394497
0.004321657395553108
0.004321016825231057
0.004320220412366746
0.004319275287643507
0.004318188333560155
0.004316966194396076
0.00431561529173095
0.004314141813635572
0.004312551738266325
0.004310850828386075
0.004309044619366628
0.004307138451290318
0.004305137418826343
0.004303046384810705
0.004300869987455411
0.004298612538819017
0.004296278102691771
0.004293870404599714
0.004291392715043601
0.004288847944572993
0.004286238555592129
0.004283566561831871
0.004280833562625911
0.004278040837132502
0.004275189480825671
0.004272280932050974
0.004269317424860384
0.004266302690814097
0.004263244200512431
0.004260153321406429
0.004257048812152427
0.004253959526000908
0.004250928400713118
0.004248020254856857
0.004245332542481018
0.004243015990139381
0.004241305013788279
0.004240558393116159
0.004241333099197765
0.004244452970175142
0.004251095294707654
0.004262970310874648
0.004282277818038398
0.004311611255704316
0.004353728856356452
0.004409994326428073
0.003779860246355165
0.003809485013747972
0.0038380034738461
0.003865329685247612
0.003891474664621295
0.003916475605568428
0.003940371634383311
0.003963201351313299
0.003985003013143282
0.004005813703410738
0.004025668865128491
0.004044602480882543
0.004062647268075747
0.004079834646880195
0.00409619485276423
0.004111757014248958
0.004126549220131615
0.004140598583408816
0.004153931296685586
0.004166572680827331
0.004178547227892863
0.00418987863920257
0.00420058985912817
0.004210703105493095
0.00422023989688366
0.00422922107764486
0.004237666840616162
0.004245596748320293
0.00425302975246059
0.004259984212410022
0.004266477912400765
0.004272528078065514
0.00427815139197317
0.004283364008727345
0.00428818156929289
0.004292619215028754
0.004296691601053239
0.004300412909536792
0.004303796862249245
0.004306856733284013
0.004309605361057123
0.004312055160346357
0.004314218134135368
0.004316105884902427
0.004317729626237973
0.004319100194045551
0.00432022805707587
0.00432112332899039
0.004321795777598094
0.00432225483691558
0.004322509617354984
0.0043225689149293
0.004322441224454537
0.00432213474635764
0.004321657398779276
0.004321016828748883
0.004320220416207382
0.004319275291842791
0.004318188338162333
0.004316966199451304
0.004315615297299104
0.004314141819793935
0.004312551745100201
0.004310850836010672
0.004309044627922416
0.004307138460943766
0.004305137429812028
0.004303046397395201
0.004300870001996453
0.004298612555784435
0.004296278122631591
0.004293870428273183
0.004291392743407417
0.004288847978822013
0.004286238597252524
0.004283566612827006
0.004280833625389863
0.00427804091475658
0.004275189577229895
0.004272281052345209
0.004269317575257438
0.004266302879897311
0.004263244438981787
0.004260153623384231
0.004257049196471518
0.004253960017624573
0.004250929034687313
0.004248021079281023
0.004245333625665732
0.004243017433174906
0.004241306957933129
0.004240561040579512
0.004241336743036009
0.004244458113894929
0.004251102435128588
0.004262979854989652
0.004282290148121776
0.004311626624619834
0.004353747222450035
0.004410015332578708
0.003779860246355518
0.003809485013748997
0.003838003473848239
0.003865329685251365
0.003891474664627235
0.003916475605577203
0.003940371634395634
0.00396320135133
0.003985003013165169
0.004005813703438916
0.004025668865163853
0.004044602480926435
0.004062647268129225
0.004079834646944827
0.004096194852841272
0.004111757014340216
0.004126549220238565
0.004140598583533532
0.004153931296829799
0.004166572680993398
0.004178547228082828
0.004189878639419079
0.00420058985937365
0.004210703105770483
0.004220239897195856
0.004229221077995084
0.004237666841007872
0.004245596748757016
0.004253029752946433
0.004259984212948849
0.004266477912997418
0.004272528078724262
0.004278151392699668
0.004283364009526382
0.004288181570171016
0.004292619215991422
0.004296691602108002
0.004300412910689952
0.004303796863509519
0.00430685673465874
0.004309605362556381
0.004312055161978893
0.004314218135912707
0.004316105886835321
0.004317729628339534
0.004319100196329106
0.004320228059556706
0.004321123331684763
0.004321795780524476
0.004322254840093917
0.004322509620807593
0.004322568918681936
0.004322441228533721
0.004322134750797561
0.004321657403613334
0.004321016834020552
0.004320220421963891
0.004319275298138613
0.004318188345065137
0.004316966207037843
0.004315615305661301
0.004314141829051269
0.004312551755384354
0.004310850847500826
0.004309044640837621
0.004307138475543923
0.004305137446465904
0.004303046416521855
0.004300870024160798
0.004298612581727637
0.004296278153225998
0.004293870464727745
0.004291392787248283
0.004288848031958034
0.004286238662124843
0.004283566692513817
0.004280833723784134
0.004278041036794347
0.004275189729151185
0.004272281242236887
0.004269317812908387
0.004266303178670709
0.004263244815410958
0.004260154099024624
0.004257049799671657
0.004253960785539007
0.004250930018667224
0.004248022348628195
0.004245335277259603
0.004243019607791704
0.004241309847666864
0.004240564913832621
0.004241341979780588
0.004244465385153845
0.004251112329970386