/*--------------------------------*- C++ -*----------------------------------*\
| =========                 |                                                 |
| \\      /  F ield         | OpenFOAM: The Open Source CFD Toolbox           |
|  \\    /   O peration     | Version:  v1812                                 |
|   \\  /    A nd           | Web:      www.OpenFOAM.com                      |
|    \\/     M anipulation  |                                                 |
\*---------------------------------------------------------------------------*/
FoamFile
{
    version     2.0;
    format      ascii;
    class       volScalarField;
    location    "1000";
    object      nut;
}
// * * * * * * * * * * * * * * * * * * * * * * * * * * * * * * * * * * * * * //

dimensions      [0 2 -1 0 0 0 0];


internalField   nonuniform List<scalar> 
40000
(
0.0002343219654351242
0.0002362432570820638
0.0002380930837753859
0.0002398868030855778
0.0002416156123177993
0.0002432782885335645
0.0002448770614659824
0.0002464132973088553
0.0002478887102599635
0.0002493047364610564
0.0002506634247782776
0.0002519664644836337
0.000253215550847451
0.0002544124409082479
0.0002555588313756415
0.0002566563738596438
0.0002577066801105534
0.0002587113181981582
0.0002596718124263007
0.0002605896439233168
0.0002614662513679709
0.0002623030317963166
0.0002631013416615171
0.000263862497799115
0.000264587778560391
0.0002652784247650084
0.0002659356408128365
0.000266560595566783
0.0002671544234064899
0.0002677182250334675
0.0002682530684559152
0.0002687599897351384
0.0002692399938896368
0.0002696940556124672
0.0002701231200942861
0.0002705281037067047
0.0002709098947998174
0.0002712693542859563
0.0002716073164833582
0.0002719245895989917
0.0002722219565199875
0.0002725001754169224
0.000272759980219534
0.0002730020815064707
0.0002732271667892016
0.0002734359011618468
0.0002736289282645662
0.0002738068698141433
0.0002739703276006989
0.0002741198826342379
0.00027425609619409
0.0002743795113200122
0.0002744906508055506
0.0002745900209304231
0.0002746781098813477
0.0002747553874718366
0.0002748223107017144
0.0002748793163298665
0.0002749268297451582
0.000274965262721524
0.0002749950085618581
0.0002750164585968285
0.0002750299852340435
0.0002750359551909054
0.000275034738369941
0.0002750266826298326
0.0002750121577729934
0.0002749915301743734
0.0002749651543573761
0.0002749334557319309
0.0002748968183220081
0.000274855656358804
0.0002748104952775452
0.000274761799973543
0.0002747100845624302
0.0002746558730027145
0.0002745996619295532
0.0002745419230606206
0.0002744829922807344
0.0002744228558552241
0.0002743612421917404
0.0002742972675818234
0.0002742293683788439
0.0002741555005114241
0.0002740730893613475
0.0002739808498311365
0.0002738773240717404
0.0002737644280910816
0.0002736464040049581
0.0002735308931379354
0.0002734310721926781
0.0002733730808018392
0.0002733861186729882
0.0002735283851482568
0.0002738806586467549
0.0002745606380070634
0.0002757045105462326
0.0002775037138293429
0.0002801183153040858
0.0002836392171862014
0.0002343219654350979
0.0002362432570819622
0.0002380930837751563
0.0002398868030851956
0.000241615612317242
0.0002432782885328101
0.0002448770614649921
0.0002464132973076019
0.000247888710258371
0.0002493047364590992
0.0002506634247758695
0.0002519664644807166
0.0002532155508439303
0.000254412440904047
0.0002555588313706593
0.000256656373853781
0.000257706680103711
0.0002587113181902103
0.0002596718124171588
0.0002605896439128217
0.0002614662513560444
0.000262303031782766
0.0002631013416462717
0.0002638624977819463
0.0002645877785412334
0.0002652784247435955
0.000265935640789103
0.000266560595540422
0.0002671544233774294
0.000267718225001368
0.0002682530684206916
0.0002687599896964095
0.0002692399938473105
0.0002696940555661218
0.000270123120043812
0.0002705281036516449
0.0002709098947400439
0.0002712693542209766
0.0002716073164130295
0.0002719245895227776
0.0002722219564377316
0.0002725001753280663
0.0002727599801238703
0.0002730020814034629
0.0002732271666785557
0.0002734359010430694
0.0002736289281372892
0.0002738068696778896
0.0002739703274550723
0.0002741198824787654
0.0002742560960283154
0.0002743795111436097
0.0002744906506178445
0.0002745900207314118
0.0002746781096701948
0.0002747553872486229
0.0002748223104660563
0.000274879316081501
0.0002749268294844581
0.0002749652624485394
0.0002749950082770145
0.0002750164583019524
0.0002750299849294002
0.0002750359548800657
0.0002750347380562294
0.0002750266823162462
0.0002750121574689144
0.0002749915298849333
0.0002749651540928876
0.0002749334555113446
0.0002748968181534867
0.0002748556562696385
0.0002748104952978986
0.0002747618001299741
0.0002747100848923485
0.0002746558735454346
0.0002745996627345884
0.0002745419241862465
0.000274482993805904
0.0002744228578617869
0.0002743612447026604
0.0002742972708907962
0.0002742293722200646
0.0002741555052315413
0.0002740730946492291
0.0002739808547334365
0.0002738773279655074
0.0002737644278423934
0.000273646395305713
0.0002735308709349086
0.0002734310249056804
0.0002733729927778315
0.0002733859690820693
0.0002735281334832043
0.000273880252135277
0.0002745600136890462
0.0002757035874153387
0.0002775024114123451
0.0002801165353795379
0.000283636913378507
0.0002343219654350693
0.0002362432570818778
0.0002380930837749675
0.0002398868030848649
0.0002416156123167287
0.0002432782885320705
0.0002448770614639664
0.0002464132973062373
0.0002478887102565567
0.0002493047364568139
0.0002506634247729395
0.0002519664644771062
0.0002532155508394572
0.0002544124408986334
0.0002555588313641342
0.0002566563738460117
0.0002577066800945537
0.0002587113181794518
0.0002596718124047114
0.0002605896438983716
0.0002614662513395644
0.0002623030317638339
0.0002631013416249202
0.0002638624977576453
0.000264587778514063
0.0002652784247129192
0.0002659356407550404
0.0002665605955022403
0.0002671544233352666
0.0002677182249543995
0.0002682530683690662
0.0002687599896392183
0.0002692399937847031
0.0002696940554971052
0.0002701231199685266
0.0002705281035690241
0.0002709098946502144
0.0002712693541227892
0.0002716073163066072
0.0002719245894068812
0.0002722219563124679
0.0002725001751921583
0.0002727599799773052
0.0002730020812450723
0.0002732271665080637
0.00027343590085951
0.0002736289279401491
0.0002738068694662858
0.0002739703272284435
0.0002741198822362651
0.0002742560957691964
0.0002743795108675867
0.0002744906503233903
0.0002745900204194169
0.0002746781093385829
0.0002747553868985696
0.0002748223100970947
0.000274879315693571
0.0002749268290797301
0.000274965262028025
0.0002749950078429396
0.000275016457861544
0.0002750299844843004
0.0002750359544433968
0.0002750347376403764
0.0002750266819324002
0.0002750121571508225
0.0002749915296520751
0.0002749651539834624
0.0002749334555949073
0.0002748968184635646
0.0002748556569095397
0.0002748104963855305
0.0002747618017763176
0.0002747100872540165
0.0002746558767955982
0.0002745996670908879
0.0002745419299155317
0.0002744830012394398
0.0002744228673640115
0.0002743612564914095
0.0002742972857705241
0.0002742293899273626
0.0002741555266177189
0.0002740731193782765
0.000273980881543591
0.0002738773561693168
0.0002737644526638815
0.0002736464108942822
0.0002735308708928352
0.0002734309949580496
0.0002733729148738905
0.0002733858187264878
0.0002735278638806868
0.0002738798021313863
0.0002745593336668027
0.0002757026057966403
0.0002775010890273582
0.0002801147995557671
0.0002836347868722634
0.000234321965435034
0.0002362432570817797
0.0002380930837747562
0.0002398868030845025
0.0002416156123161635
0.0002432782885312558
0.0002448770614628219
0.0002464132973047127
0.0002478887102544971
0.0002493047364542321
0.0002506634247695784
0.0002519664644729896
0.0002532155508342899
0.0002544124408924121
0.000255558831356555
0.0002566563738370281
0.0002577066800838678
0.0002587113181669595
0.0002596718123901292
0.0002605896438815194
0.0002614662513201928
0.0002623030317416617
0.0002631013415997527
0.0002638624977290646
0.0002645877784819476
0.0002652784246766981
0.0002659356407146714
0.0002665605954569773
0.000267154423285159
0.0002677182248985112
0.0002682530683075414
0.0002687599895709281
0.000269239993709872
0.0002696940554144259
0.000270123119878282
0.0002705281034697456
0.0002709098945422227
0.0002712693540044648
0.0002716073161783053
0.0002719245892668284
0.0002722219561610279
0.0002725001750274899
0.0002727599797996096
0.0002730020810526899
0.0002732271663007826
0.0002734359006360131
0.0002736289276998565
0.0002738068692080254
0.0002739703269515712
0.0002741198819396791
0.0002742560954519648
0.0002743795105295346
0.0002744906499623291
0.0002745900200370968
0.0002746781089319355
0.0002747553864698187
0.0002748223096457932
0.0002748793152199532
0.0002749268285876445
0.0002749652615194331
0.0002749950073217886
0.0002750164573398765
0.0002750299839651224
0.0002750359539483056
0.0002750347371897867
0.000275026681544833
0.0002750121568814087
0.0002749915295329628
0.00027496515407736
0.0002749334560156015
0.0002748968192669217
0.000274855658265295
0.0002748104984881346
0.0002747618048104059
0.0002747100914799328
0.0002746558825027411
0.0002745996746421925
0.0002745419397571062
0.000274483013917712
0.0002744228834768915
0.000274361276427146
0.0002742973107276336
0.0002742294196325881
0.000274155562329308
0.0002740731606622701
0.0002739809268863062
0.0002738774047907473
0.000273764498371485
0.0002736464466728861
0.0002735308893145364
0.000273430979934781
0.0002733728473907084
0.0002733856725372483
0.0002735275901268394
0.0002738793373770013
0.0002745586470712833
0.0002757016433411041
0.0002774998580962423
0.0002801132629158146
0.0002836330403000537
0.000234321965434999
0.0002362432570816752
0.0002380930837745443
0.0002398868030841348
0.0002416156123155872
0.0002432782885304166
0.00024487706146163
0.0002464132973031109
0.0002478887102523097
0.0002493047364515045
0.0002506634247659737
0.0002519664644686053
0.0002532155508287237
0.0002544124408857585
0.0002555588313483695
0.0002566563738274036
0.0002577066800723071
0.0002587113181535572
0.0002596718123743388
0.0002605896438634176
0.0002614662512992062
0.00026230303171781
0.0002631013415724755
0.0002638624976982665
0.0002645877784471323
0.0002652784246375863
0.0002659356406708947
0.0002665605954080041
0.0002671544232307965
0.0002677182248379311
0.0002682530682407499
0.0002687599894967823
0.0002692399936285686
0.0002696940553245296
0.0002701231197801356
0.0002705281033616684
0.000270909894424657
0.0002712693538755036
0.0002716073160384857
0.0002719245891140231
0.0002722219559958164
0.0002725001748476548
0.0002727599796055377
0.0002730020808423981
0.0002732271660741443
0.0002734359003914892
0.0002736289274368585
0.0002738068689252036
0.0002739703266482701
0.000274119881614644
0.0002742560951041764
0.0002743795101589408
0.0002744906495662977
0.0002745900196180577
0.0002746781084861339
0.0002747553860002919
0.0002748223091521561
0.000274879314702693
0.0002749268280518841
0.0002749652609678728
0.0002749950067596577
0.0002750164567828083
0.0002750299834171324
0.0002750359534372351
0.0002750347367419981
0.0002750266811841775
0.0002750121566788552
0.0002749915295299564
0.0002749651543545886
0.0002749334567198657
0.0002748968204705053
0.0002748556601871735
0.0002748105013800866
0.000274761808912702
0.0002747100971315228
0.0002746558900818693
0.000274599684623302
0.0002745419527243697
0.0002744830305845208
0.0002744229046145445
0.0002743613025762424
0.0002742973433339683
0.0002742294584481983
0.0002741556088699422
0.0002740732144089775
0.0002739809861306695
0.0002738774687267789
0.0002737645598208559
0.0002736464979725765
0.0002735309225550974
0.0002734309782821391
0.0002733727921443123
0.0002733855374622429
0.0002735273275063823
0.000273878885782278
0.000274557995069527
0.0002757007568591288
0.000277498787341577
0.0002801120063799108
0.0002836317564924402
0.0002343219654349635
0.0002362432570815738
0.0002380930837743334
0.0002398868030837681
0.0002416156123150127
0.0002432782885295714
0.0002448770614604299
0.0002464132973014957
0.0002478887102500992
0.0002493047364487547
0.0002506634247623263
0.0002519664644641923
0.0002532155508230972
0.0002544124408790661
0.0002555588313401143
0.0002566563738177278
0.0002577066800606629
0.0002587113181400865
0.0002596718123584487
0.000260589643845229
0.0002614662512780984
0.0002623030316938371
0.0002631013415450471
0.0002638624976672981
0.0002645877784121245
0.0002652784245982427
0.0002659356406268652
0.0002665605953587192
0.0002671544231761001
0.0002677182247769356
0.0002682530681735202
0.0002687599894220909
0.0002692399935466925
0.0002696940552339251
0.0002701231196812481
0.0002705281032526818
0.0002709098943061389
0.0002712693537453875
0.0002716073158974504
0.0002719245889597611
0.0002722219558290637
0.0002725001746660048
0.0002727599794095151
0.0002730020806298658
0.000273227165845059
0.0002734359001442153
0.000273628927170841
0.0002738068686390257
0.000273970326341306
0.0002741198812855894
0.0002742560947520036
0.0002743795097837015
0.0002744906491651562
0.000274590019193864
0.000274678108034792
0.0002747553855253471
0.0002748223086532973
0.0002748793141806024
0.0002749268275124489
0.0002749652604142573
0.0002749950061978579
0.0002750164562305307
0.0002750299828789962
0.0002750359529446384
0.0002750347363247163
0.0002750266808689846
0.0002750121565458722
0.0002749915296257692
0.0002749651547699173
0.0002749334576207191
0.0002748968219381973
0.000274855662468874
0.0002748105047603857
0.0002747618136639508
0.0002747101036380842
0.0002746558987736497
0.0002745996960391645
0.0002745419675278141
0.0002744830495838868
0.0002744229286770467
0.0002743613323221723
0.00027429738034944
0.0002742295024740676
0.000274155661522636
0.0002740732751458756
0.0002739810531787629
0.000273877541318939
0.0002737646303928837
0.0002736465588020596
0.0002735309658642814
0.0002734309876386605
0.0002733727503434789
0.0002733854199718032
0.0002735270905137466
0.0002738784735552737
0.0002745574134605649
0.0002756999910113866
0.000277497920849424
0.0002801110685949347
0.0002836309494191765
0.0002343219654349298
0.0002362432570814809
0.0002380930837741388
0.0002398868030834346
0.000241615612314478
0.000243278288528784
0.000244877061459309
0.000246413297299988
0.0002478887102480217
0.0002493047364461836
0.000250663424758902
0.000251966464460061
0.0002532155508178208
0.0002544124408728048
0.0002555588313323755
0.0002566563738086771
0.000257706680049759
0.0002587113181274924
0.0002596718123435796
0.000260589643828222
0.0002614662512583557
0.000262303031671424
0.0002631013415193959
0.0002638624976383427
0.000264587778379387
0.0002652784245614465
0.0002659356405856904
0.0002665605953126109
0.000267154423124941
0.0002677182247198569
0.0002682530681106222
0.0002687599893521725
0.000269239993470072
0.0002696940551490855
0.0002701231195886827
0.0002705281031506001
0.0002709098941951634
0.0002712693536234803
0.0002716073157653512
0.0002719245888151875
0.0002722219556728215
0.000272500174495717
0.000272759979225777
0.0002730020804305785
0.0002732271656302461
0.0002734358999122888
0.0002736289269213142
0.0002738068683705345
0.0002739703260532994
0.0002741198809768198
0.0002742560944215193
0.0002743795094316334
0.0002744906487887261
0.0002745900187960384
0.0002746781076115212
0.000274755385080305
0.0002748223081862654
0.0002748793136923579
0.0002749268270090429
0.0002749652598989779
0.0002749950056768464
0.000275016455721791
0.0002750299823872707
0.0002750359525016798
0.0002750347359610059
0.0002750266806106003
0.0002750121564767267
0.0002749915297872292
0.0002749651552631498
0.0002749334586040052
0.0002748968234996183
0.0002748556648596824
0.0002748105082700231
0.0002747618185685764
0.0002747101103284473
0.0002746559076891032
0.0002745997077305826
0.0002745419826726301
0.000274483069005315
0.0002744229532539595
0.0002743613626835365
0.0002742974180720237
0.0002742295472977979
0.0002741557150420015
0.0002740733368060364
0.0002739811212714859
0.0002738776151762338
0.0002737647027219857
0.0002736466224250027
0.0002735310137201223
0.0002734310048699018
0.0002733727222955518
0.0002733853253813516
0.0002735268920502453
0.0002738781244311667
0.0002745569331767322
0.0002756993815370772
0.0002774972866536164
0.000280110462050728
0.0002836305931109078
0.0002343219654349003
0.0002362432570814023
0.0002380930837739752
0.000239886803083146
0.0002416156123140181
0.0002432782885281072
0.0002448770614583428
0.0002464132972986843
0.0002478887102462261
0.0002493047364439685
0.0002506634247559432
0.0002519664644565062
0.0002532155508132745
0.0002544124408674217
0.000255558831325718
0.0002566563738009092
0.0002577066800403924
0.0002587113181166924
0.000259671812330819
0.000260589643813645
0.000261466251241427
0.0002623030316522193
0.000263101341497412
0.0002638624976135326
0.0002645877783513372
0.0002652784245299198
0.0002659356405504132
0.0002665605952731042
0.0002671544230811158
0.0002677182246709414
0.0002682530680567409
0.0002687599892922503
0.0002692399934044339
0.0002696940550763696
0.0002701231195093766
0.0002705281030630983
0.0002709098941000734
0.0002712693535189725
0.0002716073156521453
0.000271924588691235
0.0002722219555389032
0.0002725001743497012
0.0002727599790682571
0.0002730020802596817
0.000273227165446044
0.0002734358997133795
0.0002736289267073079
0.00027380686814024
0.0002739703258062691
0.0002741198807119728
0.000274256094138047
0.0002743795091297187
0.0002744906484658934
0.0002745900184550692
0.0002746781072487794
0.0002747553846992213
0.0002748223077867077
0.0002748793132751112
0.0002749268265797034
0.0002749652594606188
0.0002749950052351388
0.0002750164552932545
0.0002750299819762876
0.0002750359521372857
0.0002750347356712015
0.0002750266804188974
0.0002750121564606972
0.0002749915299832705
0.0002749651557657995
0.0002749334595564085
0.0002748968249834956
0.0002748556671055902
0.000274810511543721
0.0002747618231238097
0.0002747101165245285
0.0002746559159309554
0.000274599718525454
0.000274541996642694
0.0002744830869065107
0.0002744229758869984
0.000274361390613864
0.0002742974527221621
0.0002742295884167362
0.0002741557640689177
0.0002740733931919904
0.0002739811835553055
0.0002738776828126805
0.0002737647693582816
0.0002736466820011762
0.0002735310604632218
0.0002734310265600029
0.0002733727078021254
0.0002733852579268846
0.0002735267395204081
0.0002738778567327986
0.0002745565784176837
0.0002756989547847315
0.0002774968987391001
0.0002801101793325037
0.0002836306337232854
0.0002343219654348787
0.0002362432570813446
0.0002380930837738527
0.0002398868030829277
0.0002416156123136706
0.0002432782885275919
0.0002448770614576077
0.0002464132972976943
0.0002478887102448562
0.0002493047364422834
0.0002506634247536885
0.0002519664644538085
0.0002532155508098156
0.0002544124408633383
0.0002555588313206611
0.0002566563737950194
0.0002577066800332854
0.0002587113181085089
0.0002596718123211454
0.0002605896438026045
0.0002614662512285969
0.0002623030316376755
0.0002631013414807577
0.0002638624975947465
0.000264587778330092
0.000265278424506044
0.0002659356405237033
0.0002665605952431849
0.0002671544230479337
0.0002677182246338956
0.0002682530680159498
0.0002687599892468659
0.0002692399933547431
0.0002696940550212948
0.0002701231194493402
0.0002705281029968263
0.0002709098940280889
0.0002712693534398236
0.0002716073155664471
0.0002719245885973649
0.0002722219554375268
0.0002725001742391318
0.0002727599789490125
0.0002730020801302867
0.0002732271653066018
0.0002734358995627987
0.0002736289265453214
0.0002738068679659299
0.0002739703256193262
0.0002741198805115759
0.000274256093923597
0.0002743795089014209
0.0002744906482218054
0.000274590018197501
0.0002746781069748548
0.0002747553844117731
0.0002748223074856957
0.00027487931296123
0.0002749268262575375
0.0002749652591327091
0.0002749950049061118
0.0002750164549765082
0.0002750299816753914
0.0002750359518757127
0.0002750347354716112
0.000275026680300216
0.000275012156485721
0.0002749915301813796
0.0002749651562133374
0.0002749334603695815
0.000274896826228417
0.0002748556689691084
0.0002748105142416802
0.0002747618268627648
0.0002747101215969468
0.0002746559226667641
0.0002745997273371064
0.0002745420080350481
0.000274483101490801
0.0002744229943067915
0.000274361413318572
0.000274297480836605
0.000274229621714487
0.0002741558037022205
0.0002740734386715327
0.000273981233801955
0.0002738777374399187
0.0002737648235290535
0.0002736467312761827
0.0002735311008086856
0.0002734310493307025
0.000273372706073199
0.0002733852205013553
0.0002735266439863279
0.0002738776878025032
0.0002745563686082437
0.0002756987286218802
0.0002774967604577739
0.0002801101995081214
0.0002836310026603034
0.0002343219654348686
0.0002362432570813075
0.0002380930837737774
0.0002398868030827973
0.0002416156123134591
0.000243278288527279
0.0002448770614571601
0.0002464132972970922
0.0002478887102440215
0.0002493047364412638
0.0002506634247523189
0.0002519664644521762
0.0002532155508077165
0.0002544124408608736
0.0002555588313176012
0.0002566563737914693
0.0002577066800289917
0.0002587113181035784
0.0002596718123153088
0.0002605896437959575
0.0002614662512208657
0.0002623030316289232
0.0002631013414707308
0.0002638624975834412
0.0002645877783173103
0.0002652784244916826
0.0002659356405076388
0.0002665605952251879
0.0002671544230279893
0.0002677182246116183
0.0002682530679914403
0.0002687599892195815
0.0002692399933248977
0.0002696940549881959
0.000270123119413295
0.0002705281029570125
0.0002709098939848862
0.0002712693533922938
0.0002716073155150326
0.000271924588541019
0.0002722219553767303
0.0002725001741727957
0.0002727599788775275
0.000273002080052706
0.0002732271652230421
0.0002734358994725781
0.0002736289264483119
0.0002738068678615699
0.0002739703255074652
0.0002741198803917227
0.0002742560937954105
0.0002743795087651004
0.0002744906480761187
0.0002745900180440529
0.0002746781068117957
0.0002747553842410577
0.0002748223073073609
0.0002748793127758073
0.0002749268260681364
0.0002749652589410785
0.0002749950047153714
0.0002750164547956152
0.0002750299815067432
0.0002750359517349223
0.0002750347353737495
0.0002750266802578325
0.0002750121565405828
0.0002749915303530422
0.0002749651565525916
0.0002749334609539616
0.0002748968271021906
0.0002748556702571392
0.0002748105160885228
0.0002747618294072639
0.0002747101250355818
0.0002746559272214755
0.0002745997332841794
0.0002745420157115177
0.0002744831113010692
0.0002744230066711648
0.0002743614285299853
0.0002742974995997724
0.0002742296438716648
0.0002741558299737045
0.0002740734687208921
0.0002739812669849223
0.0002738777735996579
0.000273764859762579
0.0002736467651627048
0.0002735311303479452
0.0002734310702040896
0.0002733727158701117
0.0002733852146893889
0.0002735266133947241
0.0002738776300281561
0.0002745563163831407
0.0002756987122779336
0.0002774968661616832
0.0002801104935705009
0.0002836316276559374
0.000234321965434865
0.0002362432570813007
0.0002380930837737573
0.0002398868030827629
0.000241615612313403
0.000243278288527195
0.000244877061457039
0.000246413297296932
0.0002478887102437929
0.0002493047364409963
0.000250663424751947
0.000251966464451748
0.0002532155508071548
0.0002544124408602284
0.0002555588313167901
0.0002566563737905435
0.0002577066800278616
0.0002587113181022984
0.00025967181231378
0.0002605896437942347
0.0002614662512188501
0.0002623030316266585
0.0002631013414681277
0.0002638624975805181
0.0002645877783140029
0.0002652784244879713
0.0002659356405034949
0.0002665605952205428
0.0002671544230228588
0.000267718224605875
0.0002682530679851535
0.0002687599892125598
0.0002692399933172626
0.0002696940549796982
0.0002701231194040958
0.0002705281029468201
0.0002709098939738902
0.0002712693533801627
0.0002716073155019873
0.0002719245885266858
0.0002722219553613538
0.0002725001741559896
0.0002727599788595051
0.0002730020800331462
0.0002732271652020544
0.000273435899449953
0.0002736289264240674
0.0002738068678355553
0.0002739703254796955
0.0002741198803620813
0.0002742560937638451
0.0002743795087317783
0.0002744906480406385
0.0002745900180071474
0.0002746781067728249
0.000274755384200898
0.0002748223072661211
0.0002748793127337987
0.0002749268260266829
0.0002749652589009636
0.0002749950046778961
0.000275016454764411
0.0002750299814827974
0.0002750359517244485
0.0002750347353827484
0.0002750266802912505
0.0002750121566150251
0.0002749915304763237
0.0002749651567450219
0.000274933461246632
0.0002748968275132449
0.0002748556708371809
0.0002748105168964957
0.0002747618305005106
0.0002747101264950504
0.0002746559291389569
0.0002745997357722164
0.0002745420189057741
0.0002744831153583729
0.0002744230117464947
0.0002743614347333486
0.0002742975071423292
0.0002742296526861172
0.0002741558402742167
0.0002740734803565617
0.0002739812798195287
0.0002738777877026603
0.0002737648744488381
0.0002736467802542353
0.0002735311460350783
0.0002734310869127725
0.0002733727358864076
0.0002733852405469812
0.0002735266501572917
0.0002738776884664598
0.0002745564264752271
0.000275698907712793
0.0002774972074315834
0.0002801110374031727
0.0002836324563890602
0.0002343219654348725
0.0002362432570813184
0.000238093083773796
0.0002398868030828275
0.0002416156123135044
0.0002432782885273472
0.0002448770614572551
0.0002464132972972253
0.0002478887102441886
0.0002493047364415028
0.0002506634247526054
0.0002519664644525599
0.0002532155508081753
0.0002544124408614571
0.0002555588313182941
0.000256656373792322
0.0002577066800299888
0.0002587113181047753
0.0002596718123166899
0.0002605896437975828
0.0002614662512227228
0.0002623030316310729
0.0002631013414731721
0.0002638624975862282
0.0002645877783204558
0.0002652784244952328
0.0002659356405116313
0.0002665605952296529
0.000267154423032991
0.0002677182246171707
0.0002682530679976394
0.0002687599892264224
0.000269239993332508
0.0002696940549965543
0.0002701231194225598
0.0002705281029671537
0.0002709098939960828
0.0002712693534045118
0.0002716073155284777
0.0002719245885556497
0.0002722219553927741
0.0002725001741902231
0.0002727599788965663
0.0002730020800733689
0.0002732271652455295
0.0002734358994969656
0.0002736289264747779
0.0002738068678902368
0.0002739703255385251
0.0002741198804253304
0.0002742560938317512
0.0002743795088044617
0.0002744906481185651
0.0002745900180901058
0.0002746781068614449
0.0002747553842948908
0.0002748223073656552
0.0002748793128389315
0.0002749268261368256
0.0002749652590158516
0.0002749950047968859
0.0002750164548854514
0.0002750299816053679
0.0002750359518447565
0.0002750347354971359
0.0002750266803965839
0.0002750121567011205
0.0002749915305384973
0.0002749651567711305
0.0002749334612182667
0.0002748968274206659
0.0002748556706518037
0.0002748105165858759
0.0002747618300348714
0.0002747101258318561
0.0002746559282308293
0.0002745997345568875
0.0002745420173042685
0.000274483113264356
0.0002744230090344982
0.0002743614313204068
0.0002742975027230561
0.000274229647295538
0.0002741558335939808
0.0002740734724371291
0.0002739812710538755
0.0002738777783675623
0.0002737648661562125
0.0002736467750963582
0.0002735311463713237
0.0002734310979346219
0.0002733727644167289
0.0002733852960305454
0.0002735267517074763
0.0002738778593806345
0.0002745566917119908
0.0002756993020309101
0.0002774977610759856
0.0002801117937218832
0.0002836334311478973
0.0002343219654348863
0.0002362432570813633
0.0002380930837738871
0.0002398868030829869
0.00024161561231376
0.0002432782885277241
0.0002448770614577892
0.0002464132972979506
0.0002478887102451811
0.0002493047364427397
0.0002506634247542456
0.0002519664644545456
0.0002532155508107056
0.000254412440864469
0.0002555588313220028
0.0002566563737966707
0.0002577066800352161
0.0002587113181108263
0.0002596718123238228
0.0002605896438057533
0.0002614662512321982
0.0002623030316418439
0.0002631013414854914
0.0002638624976001453
0.000264587778336193
0.0002652784245129278
0.0002659356405314425
0.0002665605952518403
0.0002671544230576319
0.0002677182246446592
0.0002682530680279661
0.0002687599892601274
0.0002692399933694922
0.0002696940550374975
0.0002701231194672944
0.0002705281030164775
0.000270909894049783
0.0002712693534634949
0.0002716073155924886
0.0002719245886257025
0.0002722219554685955
0.0002725001742728754
0.0002727599789858707
0.0002730020801702807
0.000273227165350119
0.000273435899609985
0.0002736289265965196
0.0002738068680213713
0.0002739703256793825
0.0002741198805765433
0.0002742560939938294
0.0002743795089774692
0.0002744906483037923
0.0002745900182864256
0.000274678107070696
0.0002747553845156529
0.0002748223075981452
0.0002748793130829516
0.0002749268263899348
0.0002749652592767706
0.0002749950050630914
0.0002750164551494139
0.000275029981865115
0.0002750359520868651
0.0002750347357086439
0.0002750266805665904
0.0002750121567936452
0.0002749915305368213
0.0002749651566318355
0.0002749334608752684
0.0002748968268372918
0.0002748556697230989
0.000274810515191249
0.0002747618280604461
0.0002747101231159697
0.0002746559245918629
0.0002745997297642465
0.0002745420110725619
0.0002744831052353129
0.0002744229988149745
0.0002743614186427588
0.0002742974867965171
0.0002742296282504272
0.0002741558106134859
0.0002740734457666594
0.0002739812415726284
0.0002738777465445188
0.0002737648357433192
0.0002736467502604604
0.0002735311314354638
0.0002734311023492954
0.0002733727988958681
0.0002733853760230682
0.0002735269084351423
0.0002738781262828403
0.0002745570860386124
0.0002756998557438387
0.0002774984704675838
0.0002801126834549228
0.0002836344476740045
0.0002343219654349097
0.0002362432570814309
0.0002380930837740274
0.0002398868030832296
0.0002416156123141468
0.0002432782885282941
0.0002448770614586041
0.0002464132972990472
0.0002478887102466896
0.000249304736444612
0.0002506634247567335
0.0002519664644575518
0.0002532155508145369
0.0002544124408690274
0.0002555588313276237
0.0002566563738032543
0.0002577066800431371
0.0002587113181199887
0.0002596718123346281
0.0002605896438181241
0.0002614662512465521
0.0002623030316581513
0.0002631013415041491
0.0002638624976212187
0.0002645877783600207
0.0002652784245397178
0.0002659356405614344
0.000266560595285426
0.0002671544230949181
0.0002677182246862639
0.0002682530680738412