/*--------------------------------*- C++ -*----------------------------------*\
| =========                 |                                                 |
| \\      /  F ield         | OpenFOAM: The Open Source CFD Toolbox           |
|  \\    /   O peration     | Version:  v1812                                 |
|   \\  /    A nd           | Web:      www.OpenFOAM.com                      |
|    \\/     M anipulation  |                                                 |
\*---------------------------------------------------------------------------*/
FoamFile
{
    version     2.0;
    format      ascii;
    class       volScalarField;
    location    "1000";
    object      omega;
}
// * * * * * * * * * * * * * * * * * * * * * * * * * * * * * * * * * * * * * //

dimensions      [0 0 -1 0 0 0 0];


internalField   nonuniform List<scalar> 
40000
(
2.737762629321955
2.748470219569725
2.758738685224961
2.768542135090692
2.777889424489475
2.786798376125444
2.795287059088359
2.803372943022774
2.811072997152977
2.818403429336934
2.825379554121526
2.832015886983206
2.838326240102354
2.844323735583755
2.850020866962671
2.855429546237664
2.860561145229003
2.865426534031927
2.870036114936863
2.874399852628155
2.878527301161861
2.882427628168258
2.886109636585439
2.889581784343616
2.892852202183099
2.895928709955859
2.898818831495747
2.901529808359609
2.904068612452408
2.90644195780275
2.908656311453763
2.910717903702791
2.912632737636478
2.914406598145663
2.916045060384706
2.917553497802196
2.918937089715187
2.920200828562631
2.921349526723958
2.922387823144101
2.923320189549107
2.924150936476067
2.924884219088374
2.925524042620822
2.92607426785743
2.926538616235901
2.926920674740131
2.927223901079443
2.927451627858259
2.92760706769121
2.927693317373838
2.927713361943299
2.927670079787378
2.927566245515372
2.927404534902212
2.927187528853225
2.926917715494784
2.926597496702567
2.926229188330634
2.92581502479091
2.925357163741523
2.924857682938105
2.9243185891794
2.92374181486867
2.923129216003518
2.922482582162554
2.921803618182584
2.921093952522755
2.920355134810817
2.919588603849388
2.918795716726775
2.917977708858429
2.917135664765117
2.916270544967724
2.915383156798139
2.914474155992051
2.913544059526388
2.912593279098057
2.911622172424035
2.910631240158743
2.909621250736938
2.908593572355403
2.907550851923927
2.906497143864576
2.905439164120963
2.90438714530112
2.903356395077513
2.902369991671634
2.901462682054312
2.900688465462026
2.900130952166317
2.899918356506361
2.900249355520649
2.901415383097687
2.903833078377307
2.90809976887221
2.914971745999289
2.925320825112257
2.940044832225966
2.959513543799575
2.737762629322065
2.748470219569398
2.758738685223936
2.768542135088693
2.777889424486237
2.786798376120705
2.795287059081845
2.803372943014197
2.811072997142035
2.81840342932331
2.825379554104886
2.832015886963204
2.838326240078603
2.844323735555882
2.850020866930269
2.855429546200255
2.860561145186141
2.865426533983138
2.870036114881584
2.874399852565937
2.878527301092051
2.882427628090285
2.886109636498639
2.88958178424734
2.892852202076638
2.895928709838469
2.898818831366643
2.901529808217985
2.904068612297364
2.906441957633396
2.908656311269121
2.91071790350188
2.912632737418151
2.914406597908877
2.916045060128178
2.91755349752478
2.918937089415455
2.92020082823928
2.921349526375415
2.92238782276888
2.923320189145473
2.924150936042317
2.924884218622577
2.925524042120986
2.926074267321375
2.926538615661373
2.926920674124612
2.927223900420289
2.927451627152542
2.927607066935797
2.927693316565267
2.927713361077791
2.927670078860841
2.927566244523109
2.927404533839244
2.927187527713702
2.926917714272371
2.926597495389979
2.926229186919446
2.925815023271626
2.92535716210307
2.92485768116715
2.924318587261019
2.923741812783999
2.923129213730477
2.922482579674892
2.92180361544627
2.921093949498803
2.920355131449354
2.919588600087238
2.918795712490239
2.917977704049127
2.917135659262394
2.916270538620825
2.915383149416465
2.914474147335006
2.913544049284931
2.912593266870658
2.911622157675369
2.910631222153264
2.909621228486395
2.908593544356674
2.90755081612231
2.906497097078454
2.905439101626498
2.90438706004015
2.903356275881634
2.902369821763117
2.901462435434249
2.900688101113238
2.900130408388476
2.899917538891526
2.900248121779197
2.901413520797648
2.90383030559965
2.908095735581672
2.914966033668817
2.925312982614114
2.940034431155699
2.959500322942565
2.737762629322155
2.74847021956912
2.758738685222996
2.768542135086821
2.777889424483136
2.786798376116062
2.7952870590753
2.803372943005385
2.811072997130596
2.81840342930875
2.825379554086769
2.832015886941024
2.838326240051862
2.84432373552395
2.850020866892575
2.855429546156127
2.860561145134933
2.865426533924086
2.870036114813939
2.874399852488807
2.878527301004552
2.882427627991528
2.886109636387583
2.889581784122973
2.892852201937738
2.895928709684013
2.898818831195175
2.901529808028323
2.904068612087951
2.906441957402897
2.90865631101573
2.910717903224137
2.912632737114052
2.914406597576725
2.916045059765769
2.917553497130176
2.918937088986169
2.920200827773105
2.921349525869555
2.922387822220825
2.923320188552016
2.924150935400546
2.924884217928883
2.925524041371902
2.926074266512833
2.92653861478919
2.92692067318413
2.927223899406496
2.927451626059895
2.927607065758271
2.927693315296247
2.927713359709793
2.927670077385938
2.927566242931636
2.927404532121497
2.927187525857446
2.926917712264479
2.926597493215256
2.926229184559547
2.925815020706015
2.925357159307045
2.924857678109919
2.924318583908427
2.923741809090387
2.923129209641853
2.922482575125944
2.921803610348506
2.921093943750531
2.920355124916278
2.919588592595036
2.918795703834631
2.917977693948579
2.917135647368596
2.916270524494632
2.915383132499911
2.9144741269268
2.913544024495963
2.912593236570755
2.911622120418119
2.910631176040339
2.909621171161913
2.908593472489302
2.907550725479099
2.906496981795309
2.905438953604267
2.90438686806081
2.903356023396683
2.902369485183633
2.901461979757815
2.900687473026035
2.900129530742346
2.899916297492371
2.900246348558414
2.90141094873432
2.903826632080012
2.908090649292966
2.914959202365057
2.925304107548649
2.940023329010427
2.959486993492459
2.737762629322143
2.748470219568744
2.758738685221979
2.768542135084894
2.777889424479969
2.786798376111324
2.7952870590686
2.803372942996305
2.811072997118681
2.818403429293517
2.825379554067723
2.832015886917514
2.83832624002331
2.844323735489676
2.850020866851897
2.855429546108232
2.860561145078995
2.865426533859257
2.870036114739284
2.874399852403323
2.878527300907171
2.882427627881142
2.886109636262914
2.889581783982809
2.892852201780641
2.895928709508591
2.898818830999761
2.901529807811443
2.904068611847661
2.906441957137502
2.908656310723094
2.910717902902333
2.912632736760637
2.914406597189531
2.916045059342011
2.917553496667443
2.918937088481311
2.920200827223323
2.921349525271257
2.922387821570788
2.923320187846128
2.924150934635123
2.924884217099177
2.925524040473483
2.92607426554036
2.926538613737248
2.926920672046535
2.927223898176699
2.927451624730522
2.927607064321426
2.927693313743009
2.92771335803009
2.927670075569221
2.927566240964689
2.927404529991217
2.927187523546928
2.926917709755633
2.926597490487006
2.926229181586015
2.925815017458195
2.925357155749694
2.924857674198531
2.92431857959346
2.923741804304682
2.923129204305392
2.922482569141404
2.921803603582152
2.921093936048489
2.920355116073442
2.919588582343005
2.918795691858743
2.917977679811315
2.917135630527251
2.916270504263345
2.915383108005913
2.914474097073299
2.913543987895643
2.912593191467106
2.911622064580798
2.910631106573533
2.909621084527206
2.90859336379557
2.907550588616852
2.90649680858967
2.905438733084645
2.904386585465489
2.903355657701164
2.902369007330881
2.901461347819072
2.900686624921554
2.900128379481846
2.899914718121821
2.900244161815209
2.901407858356146
2.903822344797626
2.908084925626353
2.914951834484158
2.925294987122106
2.940012549004642
2.959474851071853
2.737762629322047
2.748470219568278
2.758738685220861
2.768542135082849
2.777889424476683
2.786798376106423
2.795287059061727
2.803372942986977
2.811072997106512
2.818403429277862
2.825379554048136
2.832015886893326
2.838326239993934
2.844323735454313
2.850020866809904
2.855429546058679
2.860561145021137
2.865426533792007
2.870036114661787
2.8743998523144
2.878527300805774
2.882427627765973
2.886109636132733
2.889581783836151
2.892852201616074
2.8959287093245
2.898818830794508
2.901529807583194
2.90406861159447
2.906441956857469
2.908656310413848
2.910717902561816
2.912632736386095
2.914406596778662
2.91604505889167
2.917553496174967
2.918937087943157
2.920200826636455
2.92134952463155
2.922387820874756
2.923320187089094
2.924150933812891
2.92488421620638
2.925524039505089
2.926074264490305
2.926538612599297
2.926920670813659
2.927223896841347
2.927451623284172
2.927607062754884
2.927693312045945
2.927713356190833
2.927670073575453
2.927566238800786
2.927404527641906
2.927187520992171
2.926917706974076
2.926597487453549
2.926229178269738
2.925815013824387
2.925357151755926
2.924857669790877
2.924318574712004
2.923741798867169
2.923129198213878
2.92248256227624
2.921803595777817
2.9210939271145
2.920355105754514
2.919588570303814
2.918795677706109
2.917977662995964
2.917135610366471
2.916270479892876
2.915383078324099
2.914474060695072
2.913543943068879
2.912593135975107
2.911621995614945
2.910631020506993
2.909620976941959
2.908593228683281
2.907550418503316
2.906496593672888
2.905438460417749
2.904386237928283
2.903355211411852
2.902368429982724
2.901460593654666
2.900685627578083
2.900127048285945
2.899912925974366
2.900241730377975
2.901404483156973
2.90381776007861
2.908078974248421
2.914944438162506
2.92528622240179
2.940002761184377
2.959464597603914
2.737762629321883
2.748470219567769
2.758738685219745
2.768542135080842
2.777889424473476
2.786798376101645
2.795287059055012
2.803372942977932
2.811072997094671
2.818403429262661
2.825379554029129
2.832015886869771
2.838326239965346
2.844323735419868
2.85002086676892
2.855429546010282
2.860561144964572
2.865426533726252
2.870036114585876
2.874399852227214
2.878527300706264
2.882427627652818
2.88610963600474
2.889581783691822
2.892852201453985
2.895928709143049
2.898818830591951
2.901529807357827
2.904068611344239
2.906441956580462
2.908656310107677
2.910717902224381
2.912632736014649
2.914406596370825
2.916045058444265
2.917553495685322
2.918937087407566
2.920200826051899
2.921349523993767
2.922387820180198
2.923320186332822
2.924150932990738
2.924884215312755
2.925524038534866
2.926074263437095
2.926538611456716
2.926920669574301
2.927223895497398
2.927451621826752
2.927607061174454
2.927693310331659
2.927713354330315
2.927670071555837
2.927566236605612
2.927404525255095
2.927187518392408
2.926917704138652
2.92659748435582
2.926229174876566
2.925815010098599
2.925357147651952
2.924857665250354
2.924318569670173
2.923741793234603
2.923129191883709
2.922482555117905
2.921803587609414
2.921093917726981
2.920355094866683
2.919588557544891
2.918795662641689
2.917977645017063
2.917135588715118
2.916270453608347
2.915383046180839
2.914474021151033
2.913543894173631
2.912593075262329
2.911621919964186
2.91063092590263
2.909620858505135
2.908593079836613
2.907550231109648
2.906496357175808
2.905438161029403
2.904385857622186
2.903354725389629
2.902367805219052
2.90145978401389
2.900684567205425
2.900125649063627
2.899911066942238
2.900239245214102
2.901401079883231
2.903813213352194
2.908073207192126
2.914937488322757
2.925278319888604
2.93999444592505
2.95945661523506
2.737762629321717
2.748470219567273
2.758738685218686
2.768542135078957
2.777889424470499
2.786798376097264
2.795287059048901
2.803372942969642
2.811072997083838
2.818403429248762
2.825379554011716
2.832015886848222
2.838326239939168
2.844323735388281
2.850020866731384
2.855429545965931
2.860561144912718
2.865426533665899
2.870036114516277
2.874399852147199
2.87852730061496
2.882427627548931
2.886109635887156
2.889581783559192
2.892852201304975
2.895928708976129
2.898818830405568
2.901529807150356
2.904068611113755
2.906441956325209
2.908656309825418
2.910717901913144
2.91263273567181
2.914406595994244
2.916045058030876
2.917553495232685
2.918937086912161
2.920200825510835
2.921349523403054
2.922387819536493
2.923320185631466
2.924150932227767
2.924884214482822
2.92552403763308
2.926074262457356
2.926538610392946
2.926920668419493
2.927223894244068
2.927451620466326
2.927607059697719
2.927693308728235
2.927713352588365
2.927670069662926
2.927566234545787
2.927404523012803
2.92718751594698
2.926917701468112
2.926597481434207
2.926229171671542
2.925815006573876
2.925357143762882
2.924857660939574
2.924318564874063
2.923741787864865
2.923129185834675
2.922482548260551
2.921803579762172
2.921093908683887
2.920355084344248
2.91958854517661
2.918795647991224
2.917977627473576
2.917135567518972
2.916270427796726
2.915383014523621
2.914473982098011
2.913543845763001
2.91259301501418
2.911621844744283
2.910630831687937
2.909620740420777
2.908592931345754
2.907550044169468
2.906496121428501
2.905437863072953
2.904385480090022
2.903354244646294
2.902367190194282
2.901458991800211
2.900683537389352
2.90012430232551
2.899909296519727
2.900236907222522
2.901397914887831
2.903809046157287
2.908068032173335
2.914931434793011
2.925271726086856
2.939987970290425
2.959451100817677
2.7377626293216
2.748470219566833
2.75873868521779
2.76854213507738
2.777889424468008
2.786798376093592
2.795287059043734
2.80337294296264
2.811072997074731
2.818403429237041
2.825379553997077
2.832015886830065
2.838326239917088
2.844323735361681
2.850020866699739
2.855429545928507
2.86056114486896
2.865426533614975
2.870036114457533
2.874399852079649
2.878527300537797
2.882427627461121
2.886109635787759
2.889581783447018
2.892852201178921
2.895928708834894
2.898818830247781
2.901529806974624
2.904068610918491
2.906441956108871
2.908656309586112
2.910717901649202
2.912632735380948
2.914406595674637
2.916045057679895
2.917553494848196
2.918937086491177
2.920200825050921
2.92134952290067
2.922387818988843
2.923320185034466
2.924150931578042
2.924884213775702
2.925524036864385
2.926074261621827
2.926538609485301
2.926920667433591
2.927223893173364
2.927451619303468
2.927607058434716
2.927693307356019
2.927713351096544
2.927670068040689
2.927566232779095
2.927404521088172
2.927187513846192
2.926917699171808
2.926597478919552
2.926229168910005
2.925815003533335
2.925357140403708
2.924857657210731
2.92431856071898
2.923741783204552
2.923129180574563
2.922482542285068
2.921803572907738
2.921093900765741
2.920355075105975
2.919588534287701
2.918795635056856
2.917977611940025
2.917135548697356
2.916270404813252
2.915382986260927
2.914473947146827
2.913543802339861
2.912592960865422
2.911621777025039
2.910630746755503
2.909620633874363
2.908592797309425
2.907549875457045
2.906495908833571
2.905437594806741
2.904385140975235
2.903353814253916
2.902366641984487
2.901458289544076
2.900682630766504
2.900123126615453
2.899907766422808
2.900234909520997
2.901395215317339
2.90380557017473
2.908063819632807
2.914926673727743
2.925266809355852
2.93998359042465
2.959448100842593
2.737762629321482
2.748470219566513
2.758738685217093
2.768542135076192
2.777889424466128
2.78679837609082
2.795287059039853
2.803372942957432
2.811072997067896
2.818403429228301
2.825379553986093
2.832015886816509
2.838326239900602
2.844323735341773
2.850020866676105
2.855429545900562
2.860561144836267
2.86542653357689
2.870036114413581
2.874399852029129
2.878527300480103
2.882427627395448
2.886109635713399
2.889581783363093
2.892852201084584
2.895928708729183
2.898818830129681
2.901529806843092
2.904068610772276
2.906441955946878
2.908656309406849
2.910717901451451
2.912632735163025
2.914406595435105
2.916045057416778
2.91755349455996
2.918937086175481
2.920200824705918
2.92134952252374
2.922387818577832
2.923320184586268
2.924150931090095
2.924884213244479
2.925524036286686
2.926074260993672
2.926538608802634
2.92692066669177
2.927223892367452
2.927451618427746
2.927607057483076
2.927693306321532
2.92771334997126
2.927670066816329
2.927566231444829
2.927404519633597
2.927187512257262
2.926917697433569
2.926597477014286
2.926229166815442
2.925815001224554
2.925357137849766
2.924857654371572
2.924318557550276
2.923741779644068
2.923129176547677
2.922482537700461
2.921803567635642
2.921093894659521
2.920355067961627
2.919588525841509
2.918795624993894
2.917977599817327
2.917135533963152
2.916270386766888
2.915382964005572
2.914473919550971
2.913543767971623
2.912592917916498
2.911621723216017
2.910630679176538
2.909620549021759
2.908592690529883
2.90754974110258
2.906495739708832
2.905437381816934
2.90438487249415
2.903353474849344
2.902366211898294
2.901457742210795
2.900681929955435
2.900122227072012
2.899906610335651
2.900233421772447
2.901393221515006
2.903803066910575
2.908060886980431
2.914923529890729
2.92526385001711
2.939981459932285
2.959447548675619
2.737762629321408
2.74847021956632
2.758738685216703
2.768542135075475
2.777889424464999
2.786798376089215
2.795287059037583
2.803372942954332
2.811072997063874
2.818403429223102
2.825379553979633
2.832015886808472
2.838326239890835
2.844323735329995
2.850020866662104
2.855429545884006
2.860561144816884
2.865426533554344
2.870036114387536
2.874399851999187
2.878527300445918
2.882427627356529
2.886109635669329
2.889581783313353
2.892852201028657
2.895928708666522
2.898818830059659
2.901529806765088
2.904068610685603
2.906441955850827
2.908656309300569
2.910717901334204
2.912632735033767
2.914406595293053
2.916045057260745
2.917553494388981
2.918937085988165
2.92020082450126
2.921349522300063
2.922387818333915
2.923320184320261
2.924150930800464
2.924884212929136
2.925524035943697
2.926074260620632
2.926538608397166
2.92692066625103
2.92722389188849
2.927451617907151
2.927607056917165
2.927693305706089
2.927713349301457
2.927670066087183
2.927566230649678
2.927404518766186
2.927187511308869
2.926917696395019
2.926597475874649
2.926229165560857
2.925814999839432
2.925357136314744
2.924857652661361
2.924318555636918
2.923741777487916
2.923129174101071
2.922482534904973
2.921803564407485
2.921093890904244
2.920355063546832
2.919588520595709
2.918795618711985
2.917977592209675
2.917135524668145
2.916270375324677
2.915382949826825
2.914473901891538
2.913543745890358
2.912592890226374
2.91162168842519
2.910630635391049
2.909620493973116
2.90859262124009
2.907549653994505
2.906495630288452
2.905437244512229
2.904384700306267
2.903353258705156
2.902365940544378
2.901457400986329
2.900681499698554
2.900121685492209
2.899905931422422
2.900232575114065
2.901392120531848
2.903801752314018
2.908059471090053
2.914922233710468
2.92526302582646
2.939981633251366
2.959449296790146
2.737762629321382
2.74847021956627
2.758738685216608
2.768542135075313
2.77788942446475
2.786798376088816
2.795287059037021
2.803372942953599
2.811072997062903
2.818403429221849
2.82537955397806
2.832015886806533
2.838326239888505
2.844323735327181
2.85002086665873
2.855429545880013
2.860561144812255
2.865426533548918
2.870036114381312
2.874399851992008
2.878527300437709
2.882427627347184
2.886109635658781
2.889581783301448
2.892852201015265
2.895928708651535
2.898818830042912
2.901529806746458
2.904068610664885
2.90644195582791
2.908656309275213
2.910717901306291
2.912632735002975
2.91440659525928
2.916045057223631
2.917553494348385
2.918937085943711
2.920200824452717
2.921349522247031
2.922387818276126
2.92332018425723
2.924150930731922
2.924884212854459
2.925524035862519
2.926074260532303
2.926538608301152
2.926920666146609
2.927223891774953
2.927451617783599
2.927607056782708
2.927693305559626
2.927713349141726
2.92767006591289
2.927566230458965
2.92740451855742
2.927187511079514
2.926917696142484
2.92659747559577
2.926229165251452
2.925814999494758
2.925357135928747
2.924857652225861
2.924318555142887
2.923741776922035
2.923129173447156
2.922482534142955
2.921803563507667
2.921093889833228
2.920355062256739
2.919588519023675
2.918795616782433
2.917977589814162
2.917135521670465
2.916270371550331
2.915382945051245
2.9144738958305
2.913543738185168
2.91259288042708
2.911621675973005
2.910630619592115
2.909620474013676
2.90859259610624
2.907549622520835
2.906495591112358
2.905437196109056
2.9043846409548
2.903353186538542
2.90236585384595
2.901457298346723
2.900681380798558
2.900121553059865
2.899905793703197
2.90023244940222
2.901392016811864
2.903801752124115
2.908059709589014
2.914922916001179
2.925264431000657
2.939984123021541
2.959453228118094
2.737762629321435
2.748470219566366
2.758738685216834
2.7685421350757
2.777889424465334
2.78679837608968
2.795287059038261
2.803372942955263
2.81107299706506
2.818403429224619
2.825379553981541
2.832015886810853
2.838326239893756
2.844323735333498
2.850020866666268
2.855429545888905
2.860561144822687
2.865426533561056
2.87003611439532
2.87439985200812
2.878527300456135
2.882427627368169
2.886109635682545
2.889581783328284
2.892852201045472
2.895928708685405
2.898818830080782
2.901529806788661
2.904068610711836
2.906441955879957
2.908656309332836
2.910717901369873
2.912632735073152
2.914406595336455
2.916045057308433
2.917553494441378
2.91893708604562
2.920200824564188
2.921349522368857
2.922387818409101
2.92332018440227
2.924150930889938
2.924884213026515
2.925524036049721
2.926074260735909
2.926538608522449
2.926920666387099
2.92722389203622
2.927451618067402
2.927607057090984
2.9276933058945
2.927713349505588
2.92767006630833
2.927566230889089
2.927404519025359
2.927187511589235
2.9269176966982
2.926597476202377
2.926229165914798
2.925815000221418
2.925357136726604
2.924857653104591
2.924318556113365
2.92374177799848
2.923129174646424
2.922482535485304
2.921803565020399
2.921093891547176
2.920355064213066
2.919588521274253
2.918795619388654
2.917977592859272
2.917135525256677
2.916270375805658
2.91538295013762
2.914473901951231
2.913543745598913
2.912592889464729
2.911621687063239
2.910630633308592
2.909620491076533
2.908592617564869
2.907549649733077
2.906495625982548
2.90543724131024
2.904384700216187
2.903353265403675
2.90236596033446
2.901457444510158
2.900681585345668
2.900121843740281
2.899906212727234
2.900233060997284
2.901392928018665
2.903803079807492
2.908061602370331
2.914925548598864
2.925267989470006
2.93998877886914
2.959459092932111
2.737762629321525
2.748470219566622
2.758738685217344
2.768542135076607
2.777889424466749
2.786798376091765
2.795287059041192
2.803372942959201
2.811072997070236
2.818403429231267
2.825379553989869
2.832015886821122
2.838326239906248
2.844323735348577
2.850020866684217
2.855429545910155
2.860561144847501
2.865426533589959
2.870036114428678
2.874399852046502
2.878527300500001
2.882427627418079
2.886109635739077
2.889581783392129
2.892852201117262
2.895928708765851
2.898818830170704
2.901529806888874
2.904068610823215
2.906441956003424
2.908656309469498
2.910717901520704
2.912632735239431
2.914406595519293
2.916045057509319
2.917553494661567
2.918937086286824
2.920200824827858
2.921349522657017
2.922387818723441
2.92332018474509
2.924150931263247
2.924884213433019
2.925524036491849
2.926074261216698
2.926538609044967
2.926920666954882
2.927223892653012
2.927451618737467
2.927607057818913
2.927693306685476
2.927713350365477
2.927670067243296
2.927566231906922
2.927404520133779
2.927187512798191
2.926917698018421
2.926597477646349
2.926229167497933
2.925815001961027
2.925357138643741
2.924857655225949
2.924318558468677
2.923741780628283
2.923129177599053
2.922482538819512
2.921803568817847
2.921093895900189
2.920355069248055
2.91958852715306
2.918795626303756
2.917977601077808
2.917135535109761
2.916270387711509
2.91538296462933
2.914473919700105
2.913543767456085
2.912592916509944
2.911621720671122
2.910630675265082
2.909620543566338
2.908592683600464
2.907549733068956
2.906495731610574
2.905437375854922
2.904384872515688
2.903353487898251
2.902366250043198
2.901457825824978
2.900682094234494
2.900122530323888
2.899907149063975
2.900234351854357
2.901394766668172
2.903805606234
2.908064962560232
2.914929867064454
2.925273336854118
2.939995114075213
2.959466264073447
2.737762629321655
2.748470219566992
2.758738685218104
2.768542135077957
2.777889424468922
2.786798376094927
2.795287059045594
2.803372942965197
2.811072997078035
2.818403429241306
2.825379554002393
2.832015886836708
2.838326239925171
2.844323735371391
2.850020866711343
2.855429545942215
2.860561144885029
2.865426533633654
2.870036114479141
2.874399852104508
2.878527300566225
2.882427627493498
2.886109635824483
2.889581783488495
2.892852201225592
2.895928708887265
2.898818830306369
2.901529807039966
2.90406861099117
2.906441956189571
2.908656309675451
2.910717901747958
2.912632735489873
2.914406595794576
2.916045057811692
2.917553494992901
2.918937086649684
2.920200825224416
2.921349523090252
2.922387819195864
2.923320185260182
2.924150931823988
2.924884214043382
2.925524037155535
2.926074261938206
2.926538609828903
2.9269206678065
2.927223893577917
2.927451619742051
2.927607058909997
2.927693307870847
2.927713351654004
2.92767006864421
2.927566233431993
2.927404521794525
2.92718751460986
2.926917699997184
2.92659747981129
2.926229169872538
2.925815004571766
2.925357141522976
2.924857658414979
2.924318562013344
2.923741784591697
2.923129182056586
2.922482543862865
2.921803574575481
2.921093902517243
2.920355076924193
2.919588536144619
2.918795636916083
2.917977613736435
2.91713555034285
2.916270406187198
2.915382987200364
2.914473947440784
2.913543801727452
2.912592959035679
2.911621773638297
2.910630741499096
2.909620626506227
2.908592787932336
2.907549864590127
2.9064958979298
2.905437586935487
2.904385141498698
2.903353832987082
2.902366695732387
2.901458406667966
2.900682860242154
2.900123549535252
2.899908516950507
2.900236204280652
2.901397365168877
2.903809101379733
2.908069484365992
2.914935477927053
2.925279984087493
2.940002545454568
2.959474073968515
2.737762629321816
2.748470219567463
2.758738685219107
2.768542135079684
2.77788942447162
2.786798376098944
2.795287059051228
2.803372942972798
2.811072997087997
2.818403429254081
2.82537955401842
2.832015886856481
2.838326239949224
2.844323735400408
2.850020866745859
2.855429545983013
2.860561144932758
2.86542653368917
2.870036114543226
2.874399852178178
2.878527300650394
2.88242762758923
2.886109635932854
2.889581783610793
2.892852201363034
2.895928709041266
2.898818830478378
2.90152980723152
2.904068611204024
2.906441956425371
2.908656309936276
2.910717902035611
2.912632735806803
2.914406596142841
2.916045058194097
2.917553495411765
2.918937087108235
2.920200825725373
2.921349523637302
2.922387819792174
2.923320185910056
2.924150932531135
2.924884214812779
2.925524037991771
2.926074262846909
2.926538610815747
2.926920668878042
2.927223894741147
2.92745162100489
2.927607060281007
2.927693309359672
2.927713353271619
2.927670070402129
2.927566235344972
2.927404523876946
2.92718751688067
2.926917702476699
2.926597482523315
2.926229172846661
2.92581500784113
2.925357145128325
2.92485766240837
2.924318566452561
2.923741789556535
2.923129187642365
2.922482550185787
2.921803581798622
2.921093910824864
2.920355086570407
2.919588547455824
2.918795650281579
2.917977629699452
2.917135569577974
2.916270429548276
2.915383015777472
2.914473982607447
2.913543845222775
2.912593013060144
2.911621840979122
2.910630825747255
2.909620732024591
2.908592920628765
2.90755003175934
2.906496109078937
2.90543785446152
2.904385481652339
2.903354268138278
2.902367255739968
2.901459133340444
2.900683813511142
2.900124809944281
2.899910195935039
2.900238457649803
2.901400497370988
2.903813271299748
2.908074800444307
2.914941944476938
2.925287441534683
2.940010566417451
2.959482046966215
2.737762629321956
2.74847021956797
2.758738685220212
2.768542135081647
2.777889424474744
2.786798376103564
2.795287059057702
2.803372942981539
2.8110729970994
2.81840342926875
2.825379554036779
2.832015886879222
2.838326239976845
2.844323735433713
2.850020866785483
2.855429546029817
2.860561144987464
2.865426533752845
2.870036114616694
2.874399852262592
2.878527300746731
2.882427627698839
2.886109636056883
2.889581783750699
2.892852201520212
2.895928709217267
2.898818830674907
2.901529807450252
2.904068611446966
2.906441956694382
2.908656310233689
2.910717902363522
2.912632736167891
2.91440659653941
2.916045058629298
2.917553495888209
2.918937087629565
2.920200826294572
2.921349524258578
2.922387820468989
2.923320186647246
2.924150933332883
2.924884215684576
2.925524038938691
2.926074263875219
2.926538611931818
2.926920670089153
2.927223896055021
2.927451622430355
2.927607061827535
2.927693311037994
2.927713355093947
2.927670072381254
2.927566237497252
2.927404526218301
2.927187519432292
2.926917705261082
2.926597485566937
2.926229176182449
2.925815011506058
2.925357149167683
2.924857666880233
2.924318571421305
2.923741795111226
2.923129193889454
2.92248255725499
2.921803589872169
2.921093920108856
2.920355097349184
2.919588560094521
2.918795665216405
2.917977647539176
2.917135591078653
2.916270455667108
2.915383047736766
2.914474021947195
2.913543893891872
2.912593073522909
2.911621916353265
2.910630920043193
2.909620850111887
2.908593069072718
2.907550218667982
2.906496344967693
2.905438153043453
2.904385860827186
2.903354752508505
2.902367878004086
2.901459939131856
2.900684867902025
2.900126199847595
2.899912040538878
2.900240920700647
2.901403867366211
2.903817768850439
2.908080496715591
2.9149487958768
2.925295212811429
2.940018714037032
2.95948982655069
2.737762629322076
2.748470219568452
2.758738685221334
2.768542135083681
2.777889424478028
2.786798376108431
2.79528705906456
2.803372942990837
2.81107299711158
2.818403429284372
2.825379554056334
2.832015886903434
2.8383262400063
2.844323735469182
2.850020866827612
2.855429546079582
2.860561145045657
2.865426533820524
2.870036114694731
2.874399852352221
2.878527300849008
2.882427627815115
2.886109636188377
2.889581783898929
2.892852201686643
2.89592870940353
2.898818830882767
2.901529807681483