/*--------------------------------*- C++ -*----------------------------------*\
| =========                 |                                                 |
| \\      /  F ield         | OpenFOAM: The Open Source CFD Toolbox           |
|  \\    /   O peration     | Version:  v1812                                 |
|   \\  /    A nd           | Web:      www.OpenFOAM.com                      |
|    \\/     M anipulation  |                                                 |
\*---------------------------------------------------------------------------*/
FoamFile
{
    version     2.0;
    format      ascii;
    class       volScalarField;
    location    "1000";
    object      p;
}
// * * * * * * * * * * * * * * * * * * * * * * * * * * * * * * * * * * * * * //

dimensions      [0 2 -2 0 0 0 0];


internalField   nonuniform List<scalar> 
40000
(
0.01725944600999217
0.01670197927806038
0.01596894454517957
0.0155726468564247
0.01529058746727545
0.01502238744444359
0.01478400384924351
0.01457263271289799
0.01437662960941986
0.01418910130937829
0.01400975760206027
0.01383663366339181
0.01366787011897102
0.01350254358427185
0.01333990154495029
0.01317939225110547
0.01302061686866588
0.01286326886514563
0.01270711085891542
0.01255195667032069
0.01239765778284063
0.01224409425314673
0.01209116810298276
0.0119387985462074
0.01178691839702346
0.01163547145991802
0.01148441048287825
0.01133369563981024
0.01118329330552603
0.01103317511027332
0.010883317183612
0.01073369949946556
0.0105843054254634
0.01043512121589064
0.01028613572158376
0.01013734006558667
0.009988727298572218
0.009840292341741514
0.009692031564536008
0.009543942712651455
0.009396024876192628
0.0092482778247129
0.009100702632126267
0.008953300782978131
0.008806074200667544
0.008659025982232288
0.008512158133208705
0.008365474244562448
0.008218977056460039
0.00807266839290203
0.007926552374507474
0.007780628793098895
0.007634900341916274
0.007489368599180579
0.007344030720393167
0.00719889183190207
0.007053947648882463
0.00690919998282628
0.006764655969449519
0.006620310698925285
0.006476185120067889
0.006332290905298052
0.006188648518893202
0.006045320386569774
0.005902345378064591
0.005759828332835267
0.005617912604966207
0.005476728052794992
0.005336571911215098
0.005197717687628894
0.005060535823867437
0.004925619555170378
0.004793469991864167
0.004664731826359781
0.004540316513176654
0.00442110007163085
0.004307850458593664
0.004201206005949564
0.004101404896299328
0.004008059571250978
0.003919647464867995
0.003832302115155004
0.00374171461802391
0.003641866444111986
0.003526028885315766
0.003388037110284596
0.003219884119963049
0.0030205108291404
0.002786841788945144
0.002516560422418763
0.002219425680893821
0.001896685014900234
0.001556636376698148
0.001217678042303568
0.0008924910503963924
0.0005801475802885103
0.0003066232916969397
9.564943331859191e-05
-6.986251747226566e-05
-2.093564857749141e-05
0.01725944600934125
0.0167019792773812
0.01596894454447602
0.0155726468557334
0.01529058746661063
0.01502238744382061
0.01478400384867305
0.01457263271237261
0.01437662960896565
0.01418910130894712
0.014009757601656
0.01383663366300444
0.01366787011856798
0.01350254358385315
0.01333990154447271
0.01317939225057851
0.01302061686803912
0.01286326886444034
0.01270711085807254
0.01255195666937604
0.0123976577817288
0.01224409425190469
0.01209116810154493
0.01193879854460905
0.01178691839519635
0.0116354714578893
0.01148441048057789
0.01133369563725528
0.01118329330264333
0.01103317510706788
0.01088331718000483
0.01073369949544929
0.01058430542095555
0.01043512121086791
0.01028613571596262
0.01013734005932793
0.009988727291587987
0.009840292333986759
0.009692031555910238
0.009543942703104543
0.009396024865636329
0.009248277813048083
0.009100702619344815
0.008953300768883949
0.008806074185351141
0.008659025965472201
0.008512158115082881
0.008365474224988397
0.008218977035470001
0.00807266837049222
0.007926552350988847
0.007780628768266593
0.00763490031669739
0.007489368573422913
0.007344030695159913
0.007198891808404037
0.00705394762763173
0.006909199966991944
0.006764655960790295
0.006620310700857365
0.006476185139117309
0.006332290945644005
0.006188648591172228
0.006045320503313717
0.005902345550856236
0.005759828588861203
0.00561791296618282
0.005476728552287068
0.005336572603864783
0.005197718614109855
0.005060537070105442
0.004925621206204343
0.00479347213445231
0.004664734611885556
0.004540320117692414
0.004421104699087881
0.00430785634743151
0.004201213462435345
0.004101414326961842
0.00400807137246759
0.003919662521052563
0.00383232096250668
0.003741738053248289
0.003641895520210571
0.003526063729123133
0.003388079269191435
0.003219933917825476
0.003020566268053161
0.002786905447747505
0.002516629756009452
0.002219498598840944
0.001896764598364463
0.001556717280266701
0.001217757789901405
0.0008925720945445289
0.0005802239807727091
0.0003066954811856765
9.570387591785015e-05
-6.981891575893623e-05
-2.092071490325082e-05
0.01725944600837297
0.01670197927646008
0.01596894454361883
0.01557264685495889
0.015290587465918
0.01502238744320229
0.01478400384812819
0.01457263271184694
0.01437662960854964
0.01418910130843617
0.01400975760111334
0.01383663366239488
0.01366787011779849
0.01350254358294568
0.01333990154330325
0.01317939224919996
0.01302061686629525
0.01286326886242146
0.0127071108555887
0.01255195666654862
0.01239765777833749
0.01224409424808684
0.01209116809705975
0.01193879853959004
0.01178691838939283
0.01163547145141303
0.01148441047317709
0.01133369562900739
0.01118329329329697
0.01103317509666804
0.01088331716829459
0.01073369948244159
0.01058430540639346
0.01043512119472107
0.01028613569798867
0.01013734003945277
0.009988727269568251
0.009840292309744045
0.009692031529169866
0.009543942673788044
0.009396024833523177
0.009248277777897652
0.009100702581241729
0.008953300727239842
0.008806074140620204
0.008659025916980421
0.008512158063236314
0.00836547416960327
0.008218976976759884
0.008072668308539699
0.007926552286965961
0.007780628701441552
0.007634900250359812
0.007489368506909336
0.007344030632016267
0.007198891752611579
0.007053947580458486
0.006909199938897227
0.006764655956977302
0.006620310731913312
0.006476185226236137
0.006332291101067328
0.006188648849162255
0.006045320904183956
0.005902346130320129
0.005759829436736219
0.00561791415301394
0.00547673018679677
0.005336574871216082
0.005197721649338815
0.005060541167816525
0.004925626661590587
0.004793479250486456
0.004664743922119623
0.004540332249484189
0.004421120377964692
0.004307876423460839
0.00420123900485851
0.004101446710105526
0.004008111937296196
0.003919713783849243
0.003832384741903971
0.003741816215657188
0.003641990645056233
0.003526176700989893
0.00338821297549543
0.003220089135888966
0.003020739160742106
0.002787099705845939
0.002516840228762026
0.002219721413153484
0.001897001500428579
0.00155695993850163
0.001218001823074819
0.0008928159871380229
0.0005804514258297285
0.0003069080983024692
9.586493325390653e-05
-6.969810013449398e-05
-2.087567054692444e-05
0.01725944600717395
0.01670197927525324
0.01596894454241995
0.01557264685378517
0.01529058746477358
0.01502238744208079
0.01478400384704092
0.01457263271071168
0.01437662960754464
0.01418910130720986
0.01400975759983051
0.01383663366096853
0.01366787011614391
0.01350254358104424
0.01333990154104955
0.01317939224658763
0.01302061686319678
0.01286326885886086
0.01270711085140106
0.01255195666179575
0.01239765777279916
0.01224409424187834
0.01209116808988514
0.01193879853161515
0.01178691838024495
0.01163547144129451
0.01148441046164571
0.01133369561628097
0.01118329327888028
0.01103317508077169
0.01088331715039051
0.01073369946270387
0.01058430538429658
0.01043512117036084
0.01028613567088224
0.0101373400096013
0.009988727236516315
0.00984029227345639
0.009692031489166034
0.009543942630007306
0.009396024785593218
0.009248277725469855
0.009100702524452593
0.008953300665159028
0.008806074073986979
0.008659025844710557
0.008512157985987794
0.008365474087070588
0.008218976889275835
0.008072668216216152
0.007926552191669945
0.00778062860193158
0.007634900151909533
0.007489368408344055
0.007344030538972831
0.007198891671383837
0.007053947512903965
0.006909199901712091
0.006764655958257824
0.006620310788413372
0.006476185371768549
0.006332291354804519
0.006188649265826495
0.006045321548110483
0.005902347058166918
0.005759830792711002
0.005617916049763845
0.00547673279896835
0.005336578497214735
0.005197726506331264
0.005060547732073577
0.004925635411646224
0.004793490678102198
0.004664758893265702
0.004540351784040321
0.004421145654356829
0.004307908821711394
0.00420128025413772
0.004101499010087688
0.004008177449252581
0.00391979635548706
0.003832487294173578
0.003741941514621862
0.003642142446933574
0.003526356599417949
0.003388424933152094
0.003220334234642929
0.003021012303661027
0.002787405326953302
0.002517171121801471
0.002220072575602295
0.001897373099747777
0.001557341634063699
0.001218387596396741
0.0008932003505357199
0.0005808095862100288
0.0003072425174327328
9.611949119678932e-05
-6.951021233897297e-05
-2.080325585770095e-05
0.01725944600597639
0.01670197927406197
0.01596894454124929
0.01557264685264846
0.01529058746367051
0.01502238744100024
0.0147840038459909
0.01457263270957153
0.01437662960656252
0.01418910130589485
0.0140097575984389
0.01383663365934456
0.01366787011423625
0.01350254357875972
0.01333990153834564
0.01317939224335129
0.01302061685939014
0.01286326885437854
0.01270711084617419
0.01255195665576285
0.01239765776581031
0.01224409423396004
0.01209116808075102
0.01193879852141294
0.01178691836852029
0.01163547142831726
0.01148441044679922
0.01133369559992599
0.01118329326027382
0.01103317506031158
0.01088331712726657
0.01073369943728586
0.01058430535577588
0.01043512113899998
0.01028613563595348
0.01013733997122035
0.009988727194024181
0.009840292226896646
0.009692031437879908
0.009543942573983015
0.009396024724337584
0.009248277658586688
0.009100702452122777
0.008953300586226639
0.008806073989422779
0.008659025753157436
0.008512157888312151
0.008365473982921567
0.008218976779099671
0.008072668100187527
0.007926552072210304
0.00778062847745443
0.007634900029202028
0.007489368285882936
0.007344030423967306
0.007198891571867443
0.007053947431168261
0.006909199859059724
0.006764655964895988
0.00662031086556895
0.006476185562499882
0.006332291683229256
0.006188649801550777
0.00604532237297244
0.005902348243791592
0.005759832523206601
0.005617918467933709
0.005476736127771723
0.005336583117881003
0.005197732695434797
0.005060556099772977
0.004925646570668114
0.004793505259172278
0.004664778008774914
0.004540376745987762
0.004421177979586615
0.004307950287466909
0.004201333087166208
0.004101566025424644
0.004008261445347684
0.003919902106208332
0.003832618599848695
0.003742101783162694
0.003642336200053347
0.003526586002365176
0.003388694607290191
0.003220645363928857
0.003021358980700563
0.002787792291550787
0.002517589650472737
0.002220516998954277
0.00189784198129705
0.001557823567936624
0.001218875595846948
0.0008936855713115432
0.0005812610975176398
0.0003076634940146689
9.643999642958063e-05
-6.927576063286132e-05
-2.071220978611276e-05
0.01725944600486753
0.01670197927294588
0.01596894454012898
0.01557264685152571
0.0152905874625446
0.01502238743984956
0.01478400384482863
0.01457263270826159
0.01437662960539199
0.01418910130430675
0.01400975759674286
0.01383663365735998
0.01366787011192623
0.0135025435760113
0.01333990153513444
0.01317939223953963
0.01302061685495421
0.01286326884919215
0.01270711084017197
0.01255195664887351
0.01239765775786844
0.01224409422499994
0.01209116807044965
0.01193879850994505
0.01178691835537224
0.0116354714138031
0.01148441043022653
0.01133369558171077
0.01118329323958426
0.01103317503761089
0.01088331710164324
0.01073369940917574
0.01058430532427343
0.01043512110442165
0.01028613559748268
0.01013733992901297
0.009988727147341446
0.009840292175812565
0.009692031381656608
0.009543942512631163
0.009396024657308011
0.009248277585452156
0.009100702373093836
0.008953300500019568
0.008806073897132588
0.00865902565327023
0.008512157781803002
0.008365473869400387
0.008218976659062942
0.008072667973826268
0.007926551942230896
0.007780628342050512
0.00763489989597548
0.007489368153070533
0.007344030299617346
0.007198891464923159
0.007053947344101938
0.006909199815672731
0.006764655976479403
0.006620310955747893
0.006476185779378705
0.006332292053528407
0.00618865040303432
0.006045323297119175
0.005902349570164261
0.005759834458514002
0.005617921170684455
0.005476739848549217
0.005336588283909755
0.005197739615898494
0.005060565460455857
0.004925659059519064
0.004793521585736747
0.004664799423477917
0.004540404726649071
0.004421214235065738
0.004307996818959586
0.004201392400189271
0.004101641273092451
0.004008355778442984
0.003920020778443452
0.003832765863950974
0.003742281368566188
0.003642552939931765
0.003526842383935662
0.003388995547176921
0.003220992011586314
0.003021745158116978
0.002788222767213307
0.002518054974898678
0.002221011395357846
0.001898362840002599
0.001558359267022705
0.001219418780555748
0.0008942252675429647
0.0005817631046832624
0.0003081313586917074
9.67964628842252e-05
-6.901628527746034e-05
-2.061076844664497e-05
0.01725944600392034
0.01670197927198989
0.01596894453916587
0.01557264685055385
0.01529058746156307
0.0150223874388303
0.01478400384378369
0.01457263270705389
0.01437662960431688
0.01418910130279289
0.01400975759511163
0.01383663365542774
0.0136678701096593
0.01350254357329512
0.01333990153194816
0.01317939223574365
0.01302061685052672
0.01286326884400562
0.01270711083415907
0.01255195664196449
0.01239765774989275
0.01224409421599442
0.01209116806008414
0.01193879849839782
0.0117869183421228
0.01163547139916927
0.01148441041350869
0.01133369556333031
0.01118329321870284
0.01103317501470116
0.01088331707578142
0.01073369938081174
0.01058430529249398
0.0104351210695547
0.01028613555870711
0.01013733988649649
0.009988727100342414
0.00984029212441905
0.009692031325129847
0.009543942450996112
0.009396024590019269
0.009248277512093308
0.009100702293889519
0.008953300413688241
0.008806073804795323
0.008659025553413378
0.008512157675425227
0.008365473756126753
0.008218976539404788
0.008072667847990517
0.007926551812966016
0.007780628207528052
0.007634899763889756
0.00748936802161938
0.007344030176922361
0.007198891359991818
0.007053947259369292
0.006909199775126972
0.006764655991418363
0.006620311049883482
0.006476186001160234
0.006332292429660245
0.006188651011747976
0.006045324230712459
0.00590235090760005
0.005759836410790589
0.005617923891503042
0.005476743599578376
0.005336593487637964
0.005197746585655815
0.005060574897719641
0.004925671648704116
0.004793538052248252
0.004664821030158453
0.004540432971611926
0.004421250852770826
0.004308043838682049
0.00420145236000305
0.00410171735637582
0.004008451174317793
0.003920140735603642
0.003832914644151588
0.003742462682866819
0.003642771499761195
0.003527100688372127
0.003389298387172545
0.003221340395748476
0.003022133169053246
0.002788654849878566
0.002518521789918238
0.002221507542658515
0.001898884976908539
0.001558896440182044
0.001219963961571116
0.0008947666551411361
0.0005822664012984407
0.0003086002366389383
9.71535299017856e-05
-6.875740853780547e-05
-2.050952390625781e-05
0.01725944600316355
0.01670197927122261
0.01596894453838444
0.01557264684975115
0.01529058746073369
0.01502238743794912
0.01478400384285886
0.01457263270595958
0.01437662960332375
0.01418910130137924
0.01400975759357728
0.01383663365360604
0.01366787010752477
0.0135025435707464
0.01333990152896893
0.01317939223221013
0.01302061684642171
0.01286326883921616
0.01270711082862539
0.01255195663562519
0.01239765774259351
0.01224409420777155
0.01209116805063811
0.01193879848789415
0.01178691833008898
0.01163547138589988
0.01148441039836677
0.0113336955467083
0.01118329319983746
0.01103317499403098
0.01088331705247117
0.0107336993552789
0.01058430526391106
0.01043512103823241
0.01028613552390213
0.0101373398483738
0.00998872705823318
0.009840292078414544
0.009692031274564866
0.009543942395905039
0.009396024529912639
0.009248277446602105
0.009100702223227944
0.008953300336693946
0.008806073722501959
0.008659025464442888
0.008512157580697935
0.0083654736553009
0.00821897643295013
0.008072667736092054
0.007926551698129697
0.007780628088065207
0.00763489964681891
0.00748936790525589
0.007344030068649163
0.007198891267984545
0.00705394718577072
0.006909199741761145
0.006764656008472914
0.006620311138849689
0.006476186206104505
0.006332292774685565
0.006188651567983055
0.006045325082196752
0.005902352125565565
0.005759838188550345
0.005617926366681706
0.005476747013446636
0.005336598223514987
0.005197752929089802
0.005060583492013885
0.004925683116568449
0.004793553059196273
0.00466484073016289
0.004540458736937525
0.00442128427252711
0.004308086770254328
0.004201507123507994
0.004101786850206905
0.004008538307626708
0.003920250245533924
0.003833050357197201
0.00374262795620659
0.00364297044804768
0.003527335574417578
0.00338957345273927
0.003221656433783414
0.003022485072271999
0.002789046411884013
0.002518944638238873
0.002221957187885869
0.001899357852675891
0.001559382993552659
0.001220458432709453
0.0008952576437145739
0.0005827226793572039
0.000309025307859657
9.747711706289801e-05
-6.852353958394532e-05
-2.041811740887377e-05
0.01725944600261857
0.01670197927066873
0.01596894453781679
0.01557264684916375
0.01529058746012023
0.01502238743728547
0.01478400384215477
0.01457263270511434
0.01437662960255722
0.01418910130026676
0.01400975759236664
0.01383663365216391
0.0136678701058317
0.01350254356872242
0.0133399015266033
0.01317939222940423
0.01302061684316252
0.01286326883541373
0.01270711082423235
0.01255195663059249
0.01239765773679808
0.01224409420124373
0.01209116804313575
0.0119387984795536
0.01178691832052833
0.01163547137536056
0.01148441038633559
0.01133369553350581
0.01118329318484892
0.01103317497761613
0.01088331703395785
0.01073369933501146
0.0105843052412241
0.01043512101338389
0.01028613549629772
0.01013733981815402
0.00998872702486475
0.009840292041979963
0.009692031234534151
0.009543942352315662
0.009396024482377483
0.009248277394832862
0.009100702167408083
0.008953300275893493
0.00880607365756653
0.008659025394267736
0.008512157506036533
0.008365473575884434
0.008218976349165087
0.008072667648091525
0.007926551607940858
0.00778062799431574
0.007634899555174141
0.007489367814332787
0.007344029984382627
0.007198891196937886
0.00705394712960625
0.006909199718022259
0.006764656025269735
0.006620311213372816
0.006476186373750392
0.006332293054630247
0.006188652017332298
0.006045325768449188
0.005902353105597705
0.005759839618196626
0.005617928355898607
0.00547674975688759
0.005336602030064165
0.005197758028303288
0.00506059040380226
0.004925692343472691
0.004793565139148334
0.004664856596577445
0.004540479500739333
0.004421311219812063
0.004308121403038992
0.004201551314664011
0.00410184292901934
0.004008608612520872
0.003920338544798233
0.003833159666950629
0.003742760948026839
0.003643130259666828
0.003527524017505519
0.003389793828085696
0.003221909270358502
0.003022766533297618
0.002789359325955429
0.002519282400788611
0.002222316604624004
0.001899735588485296
0.00155977180503352
0.001220854187842752
0.0008956505607929775
0.0005830876387846006
0.0003093652585986259
9.773568784897583e-05
-6.83373807253343e-05
-2.034560334292305e-05
0.01725944600229622
0.01670197927033945
0.01596894453747591
0.01557264684880613
0.01529058745973992
0.01502238743686822
0.01478400384170067
0.01457263270455931
0.01437662960205223
0.01418910129952534
0.01400975759155733
0.01383663365119978
0.01366787010470233
0.01350254356737733
0.0133399015250382
0.01317939222755509
0.01302061684102447
0.012863268832929
0.01270711082137201
0.0125519566273272
0.0123976577330469
0.0122440941970313
0.01209116803830304
0.01193879847419597
0.01178691831439387
0.01163547136861657
0.01148441037864349
0.01133369552508571
0.01118329317529617
0.0110331749671788
0.01088331702219391
0.01073369932215746
0.01058430522684869
0.010435120997666
0.01028613547885061
0.01013733979908187
0.00998872700382266
0.009840292019032982
0.00969203120934109
0.009543942324911977
0.00939602445251631
0.00924827736233369
0.009100702132402261
0.008953300237771992
0.0088060736169029
0.008659025350332113
0.008512157459339744
0.008365473526249036
0.008218976296851905
0.008072667593198472
0.007926551551811281
0.007780627936021639
0.0076348994984624
0.007489367758250724
0.007344029932829775
0.007198891154214363
0.007053947096727597
0.00690919970653291
0.006764656040405936
0.006620311266354083
0.006476186487849223
0.006332293242246271
0.006188652316003291
0.006045326222544428
0.005902353752243762
0.005759840560333069
0.00561792966565418
0.005476751562897295
0.005336604536839664
0.005197761387461325
0.005060594960591546
0.004925698431917352
0.004793573117138844
0.004664867085475145
0.004540493240504057
0.004421329066396962
0.004308144354816336
0.004201580612241025
0.004101880102958956
0.004008655199785744
0.003920396960925585
0.003833231841564135
0.00374284857692956
0.003643235249145612
0.003527647530542813
0.003389937916775285
0.003222074188961916
0.003022950040813038
0.00278956305221887
0.002519502207975521
0.002222550793940127
0.001899981459442798
0.001560025287071072
0.001221112858580834
0.000895907311985968
0.0005833259979718527
0.0003095872542913788
9.790436463744562e-05
-6.821673311550806e-05
-2.029883600658216e-05
0.01725944600220404
0.01670197927024432
0.01596894453737531
0.01557264684869604
0.01529058745961688
0.01502238743672667
0.01478400384154395
0.01457263270435727
0.01437662960187068
0.01418910129924916
0.01400975759125766
0.0138366336508448
0.01366787010429031
0.01350254356689158
0.0133399015244796
0.01317939222690247
0.01302061684027833
0.01286326883206856
0.01270711082038922
0.01255195662621322
0.01239765773177329
0.01224409419561079
0.01209116803667505
0.01193879847240406
0.01178691831234048
0.01163547136637545
0.01148441037608277
0.01133369552230307
0.01118329317213444
0.01103317496374742
0.01088331701832327
0.01073369931795408
0.01058430522214703
0.01043512099255153
0.01028613547317885
0.01013733979290772
0.009988726997020933
0.009840292011643331
0.009692031201240301
0.009543942316128984
0.009396024442966515
0.009248277351959249
0.009100702121270971
0.008953300225653065
0.008806073604041068
0.00865902533644524
0.008512157444645866
0.008365473510682385
0.008218976280523991
0.008072667576146917
0.007926551534567106
0.007780627918199098
0.007634899481530167
0.007489367741788762
0.007344029918328055
0.00719889114330042
0.007053947089686168
0.006909199707791422
0.006764656051832489
0.006620311292115474
0.00647618653683395
0.006332293318890766
0.006188652434625142
0.006045326400052146
0.005902354002440148
0.005759840923110898
0.005617930168448444
0.005476752255598137
0.005336605499547092
0.005197762679266115
0.005060596718072611
0.004925700787848801
0.004793576213981669
0.004664871171319798
0.00454049861147888
0.004421336063694093
0.004308153374322888
0.004201592139700347
0.00410189471957766
0.004008673489735673
0.003920419744525322
0.003833259784825996
0.003742882225859999
0.003643275102176857
0.003527694006952642
0.003389991601568714
0.003222135060771734
0.003023017676159773
0.002789637694518724
0.002519582629109205
0.002222636935514666
0.001900071477639809
0.001560118749420292
0.001221209263666255
0.0008960028476315799
0.0005834144716666859
0.0003096695539189528
9.796666747702046e-05
-6.817352752965234e-05
-2.028229222630427e-05
0.01725944600234638
0.01670197927038831
0.01596894453751894
0.01557264684883831
0.01529058745975863
0.01502238743687103
0.01478400384168998
0.01457263270451612
0.01437662960202004
0.01418910129944995
0.01400975759147938
0.01383663365111245
0.01366787010461172
0.01350254356728574
0.01333990152495348
0.01317939222747736
0.0130206168409621
0.0128632688328818
0.01270711082134458
0.01255195662732477
0.01239765773306653
0.01224409419708897
0.01209116803838204
0.01193879847432847
0.01178691831454991
0.01163547136884431
0.01148441037890135
0.01133369552543549
0.01118329317568935
0.01103317496768637
0.01088331702276639
0.01073369932287014
0.01058430522765361
0.0104351209986338
0.01028613547995064
0.01013733980037088
0.009988727005282843
0.009840292020716257
0.009692031211233045
0.009543942327060845
0.00939602445492534
0.009248277365016861
0.009100702135423362
0.008953300241071551
0.008806073620616492
0.008659025354369273
0.008512157463822095
0.008365473531160211
0.008218976302252507
0.008072667599096639
0.007926551558400946
0.007780627943106928
0.007634899506552135
0.007489367767073287
0.007344029942805346
0.007198891165757779
0.007053947109642591
0.006909199722118906
0.006764656058838043
0.006620311288503089
0.006476186516232113
0.006332293277336583
0.00618865236181843
0.006045326283784756
0.005902353831856051
0.005759840671148958
0.005617929815226778
0.005476751767385901
0.005336604824225885
0.005197761777742111
0.005060595504922352
0.004925699181656485
0.004793574127871269
0.004664868455936338
0.004540495090226948
0.004421331529532125
0.004308147581840067
0.004201584771993162
0.004101885351641564
0.004008661695286246
0.003920404665830602
0.00383324076504153
0.003742858599557568
0.003643245913534376
0.003527658900262396
0.003389949616608114
0.003222085914816632
0.003022962813629621
0.002789575913478964
0.002519515763457216
0.002222566574509835
0.001899996762185015
0.001560042999200427
0.001221133951752718
0.0008959277464617692
0.0005833443141265097
0.0003096039826759525
9.791645896709506e-05
-6.821217401568349e-05
-2.029741569252189e-05
0.01725944600272756
0.01670197927077194
0.0159689445379091
0.01557264684923664
0.01529058746016588
0.01502238743729934
0.01478400384213542
0.01457263270503672
0.01437662960249902
0.01418910130012248
0.01400975759221575
0.01383663365199363
0.01366787010565386
0.01350254356854118
0.01333990152643494
0.01317939222924765
0.01302061684303449
0.01286326883531404
0.01270711082416975
0.01255195663057795
0.01239765773682368
0.01224409420134081
0.01209116804327273
0.01193879847979202
0.01178691832081006
0.01163547137577798
0.0114844103868101
0.01133369553415402
0.01118329318557956
0.01103317497856362
0.0108833170350286
0.01073369933634491
0.01058430524273773
0.01043512101520704
0.01028613549837252
0.01013733982058958
0.009988727027627384
0.00984029204516842
0.009692031238122427
0.009543942356396518
0.009396024486956386
0.009248277399937612
0.009100702173159879
0.008953300282179756
0.008806073664646648
0.008659025401969812
0.008512157514591728
0.00836547358526221
0.008218976359481206
0.008072667659361196
0.007926551620533804
0.007780628007858299
0.007634899570633772
0.007489367831192507
0.007344030003440866
0.007198891218982137
0.007053947154259434
0.006909199747755502
0.00676465606040977
0.006620311255572424
0.006476186427790939
0.006332293121401317
0.006188652104467925
0.006045325884873652
0.005902353256900568
0.005759839828756702
0.00561792864007181
0.005476750145365152
0.005336602576037987
0.005197758769811933
0.005060591438132327
0.004925693768304878
0.004793567060189013
0.004664859201765376
0.004540483017737487
0.004421315904183899
0.004308127541628008
0.004201559229371123
0.004101852917831199
0.004008620976960913
0.003920353212466427
0.003833176657597877
0.003742780030823577
0.003643150559940842
0.003527545657853834
0.003389816082755375
0.003221931557623935
0.003022790804501608
0.002789383733304942
0.002519308110380183
0.002222346537075751
0.001899764567371873
0.001559805369076169
0.001220894199446257
0.0008956892789818469
0.0005831223190197331
0.0003093969052564194
9.775859501464905e-05
-6.832884383153525e-05
-2.03428668681297e-05
0.01725944600334198
0.01670197927139391
0.01596894453853873
0.01557264684987755
0.01529058746082176
0.01502238743798599
0.01478400384284751
0.01457263270586682
0.01437662960325187
0.01418910130118463
0.01400975759337039
0.0138366336533691
0.01366787010727479
0.01350254357048924
0.01333990152872731
0.0131793922319829
0.01302061684623143
0.01286326883906358
0.0127071108285223
0.01255195663558546
0.01239765774260699
0.01224409420788176
0.01209116805080022
0.01193879848819271
0.01178691833044403
0.01163547138643782
0.01148441039897983
0.01133369554755618
0.01118329320079543
0.01103317499528343
0.01088331705389003
0.01073369935705713
0.01058430526593433
0.01043512104067901
0.01028613552669438
0.01013733985166162
0.00998872706197137
0.009840292082740574
0.009692031279442823
0.009543942401465151
0.009396024536162426
0.009248277453581248
0.009100702231105526
0.008953300345316231
0.008806073732226787
0.008659025475035588
0.00851215759247784
0.008365473668228207
0.00821897644718461
0.008072667751656772
0.007926551715533857
0.007780628106794182
0.007634899668206731
0.007489367928588136
0.00734403009502424
0.007198891298484145
0.007053947219871021
0.006909199782859309
0.006764656057008646
0.006620311197087204
0.006476186280610833
0.006332292866661565
0.006188651687914178
0.006045325242325755
0.005902352333556049
0.005759838477859124
0.005617926757085372
0.005476747547005631
0.005336598973377952
0.00519775394759728
0.005060584912865802
0.004925685074360042
0.004793555699477728
0.004664844311744144
0.004540463573615553
0.004421290716844944
0.004308095218428216
0.004201518020454163
0.00410180060812944
0.004008555344847438
0.003920270459034484
0.003833073779804253
0.003742654263370082
0.003642998423821284
0.003527365392112348
0.003389604088136005
0.003221687074722775
0.003022518427607089
0.00278907988037026
0.002518979853493325
0.002221998190556427
0.001899397433095705
0.001559428880400944
0.001220513221716533
0.0008953105638154171
0.0005827700216968064
0.0003090684422041974
9.750837979794784e-05
-6.851211182702909e-05
-2.041433675779578e-05
0.01725944600418054
0.01670197927224222
0.01596894453939571
0.0155726468507455
0.01529058746170451
0.01502238743890479
0.01478400384379513
0.01457263270696327
0.01437662960424029
0.01418910130256448
0.01400975759486256
0.01383663365513678
0.01366787010934848
0.01350254357297139