/*--------------------------------*- C++ -*----------------------------------*\
| =========                 |                                                 |
| \\      /  F ield         | OpenFOAM: The Open Source CFD Toolbox           |
|  \\    /   O peration     | Version:  v1812                                 |
|   \\  /    A nd           | Web:      www.OpenFOAM.com                      |
|    \\/     M anipulation  |                                                 |
\*---------------------------------------------------------------------------*/
FoamFile
{
    version     2.0;
    format      ascii;
    class       surfaceScalarField;
    location    "1000";
    object      phi;
}
// * * * * * * * * * * * * * * * * * * * * * * * * * * * * * * * * * * * * * //

dimensions      [0 3 -1 0 0 0 0];
oriented        oriented;


internalField   nonuniform List<scalar> 
115600
(
0.03996506452382073
1.319409121511469e-14
8.251795997984226e-06
0.03994166880820441
3.209226088870917e-14
2.339571558073889e-05
0.03991167835048418
5.225053453334256e-14
2.999045765581886e-05
0.03987807773359042
7.243143657233353e-14
3.360061679979599e-05
0.03984203031382343
9.164318476479986e-14
3.604741964412983e-05
0.03980466267547794
1.093434906294255e-13
3.736763819498892e-05
0.03976667557047812
1.249790528285609e-13
3.798710482400846e-05
0.03972838406098761
1.391589122471216e-13
3.829150928955771e-05
0.0396900226143112
1.505094836808989e-13
3.836144645455913e-05
0.03965168586590017
1.607841957480547e-13
3.83367481673925e-05
0.03961346524337313
1.702519081663941e-13
3.822062226111971e-05
0.03957541472721212
1.791497973181521e-13
3.805051587242726e-05
0.03953756790957998
1.889577211656824e-13
3.784681731725473e-05
0.03949994558699035
1.998234895364545e-13
3.762232224564471e-05
0.03946256050159885
2.13784959718273e-13
3.738508501114815e-05
0.03942542014271172
2.303257342469019e-13
3.71403584653068e-05
0.03938852862899354
2.523488426174196e-13
3.689151324360493e-05
0.039351887919441
2.789468205304795e-13
3.66407090171367e-05
0.03931549854984781
3.130353716271263e-13
3.638936898204285e-05
0.03927936011603908
3.536736891948764e-13
3.613843311054675e-05
0.03924347159901941
4.040298090241531e-13
3.588851621552073e-05
0.03920783157919769
4.632210766934398e-13
3.564001889643141e-05
0.03917243837965105
5.34566564674401e-13
3.539319847700412e-05
0.03913729016125508
6.174123718936646e-13
3.514821716204902e-05
0.03910238498590751
7.153180564782033e-13
3.490517392112904e-05
0.03906772085754635
8.281338552265926e-13
3.46641267160785e-05
0.03903329574875383
9.596502933720292e-13
3.442510689473135e-05
0.03899910761711972
1.110350038774276e-12
3.418812944982535e-05
0.03896515441521912
1.284372514137997e-12
3.39531993877979e-05
0.0389314340960855
1.482908191890119e-12
3.372031624974248e-05
0.03889794461562007
1.710600643287668e-12
3.348947715865631e-05
0.03886468393378761
1.969385863386213e-12
3.326067804917138e-05
0.03883165001373317
2.264342583288024e-12
3.303391573136368e-05
0.03879884082142937
2.598425477689872e-12
3.280918737370371e-05
0.03876625432448502
2.977005307364609e-12
3.258649133084393e-05
0.03873388849042197
3.404055661989908e-12
3.236582768325413e-05
0.03870174128743478
3.885563055358848e-12
3.214719574814258e-05
0.03866981068212104
4.425899017078516e-12
3.193059711620427e-05
0.03863809464080489
5.032160317371811e-12
3.171603204805444e-05
0.03860659113144642
5.709217563050189e-12
3.15034989010657e-05
0.03857529812115963
6.463727803560847e-12
3.12929985101676e-05
0.03854421358530356
7.303766961235759e-12
3.108452261564541e-05
0.03851333550467617
8.231874232665141e-12
3.087806577905314e-05
0.03848266187155535
9.261566885093695e-12
3.06736164915177e-05
0.03845219070289205
1.039117114665654e-11
3.04711500917092e-05
0.03842192002888024
1.163460686156771e-11
3.027065330711177e-05
0.03839184792482003
1.2993583418888e-11
3.007208103425379e-05
0.03836197250085503
1.447325246026835e-11
2.987539842244624e-05
0.03833229191032824
1.607885263520993e-11
2.968056226470857e-05
0.03830280439117117
1.781409631785218e-11
2.948748796807463e-05
0.03827350821659341
1.966698618703262e-11
2.929614029075527e-05
0.03824440176702255
2.165640985988317e-11
2.910641196613663e-05
0.03821548350729903
2.373919080230901e-11
2.891821869655139e-05
0.03818675194939569
2.592880460675744e-11
2.873151331035245e-05
0.03815820577229419
2.81875462715489e-11
2.854612889000465e-05
0.03812984364162401
3.0449189578089e-11
2.836207895029299e-05
0.03810166432723702
3.271557112538532e-11
2.817925924273939e-05
0.03807366666943306
3.483169511335323e-11
2.799759969720713e-05
0.03804584929748005
3.671634526199022e-11
2.781731151748834e-05
0.03801821096749528
3.824654623322289e-11
2.763826811787676e-05
0.03799074999634369
3.907953152067248e-11
2.746090957637255e-05
0.03796346426477104
3.905941072187717e-11
2.728567231566398e-05
0.03793635133320139
3.770327612790428e-11
2.711287779524604e-05
0.03790940720878118
3.436354428563124e-11
2.694408083249632e-05
0.03788262717789695
2.860109654688923e-11
2.67800031227848e-05
0.03785600439727471
1.905974458818443e-11
2.662277764721228e-05
0.03782952906859118
4.684472909307865e-12
2.647536193629033e-05
0.03780318957373718
-1.595112615640108e-11
2.633957919662236e-05
0.03777696865765737
-4.570019530155674e-11
2.622107355355066e-05
0.03775084500292325
-8.633824157396836e-11
2.612391170719141e-05
0.03772479314956472
-1.418802084457737e-10
2.605224646818075e-05
0.03769877579606547
-2.170845554244463e-10
2.601793179365452e-05
0.0376727499647766
-3.158210166724128e-10
2.60266539410766e-05
0.03764667035684308
-4.449911268950706e-10
2.608075241835312e-05
0.03762048658530858
-6.135158019015552e-10
2.618533934486162e-05
0.03759414793671025
-8.317911897964086e-10
2.634076896843624e-05
0.03756760992160057
-1.111438251721826e-09
2.654084881772619e-05
0.03754084054717204
-1.467931939864776e-09
2.677312230984598e-05
0.03751384330577019
-1.922430872135082e-09
2.700215644032116e-05
0.03748667347369228
-2.493266254209367e-09
2.71762151538392e-05
0.0374594457640216
-3.223969670953274e-09
2.723594818578191e-05
0.03743239544693795
-4.147201023956277e-09
2.706087470827193e-05
0.03740583814487362
-5.307546507655422e-09
2.657072350395758e-05
0.03738014437634297
-6.782024314503899e-09
2.571072403694579e-05
0.03735577537278262
-8.566156172448727e-09
2.43901715825614e-05
0.0373331931919862
-1.075639283763877e-08
2.260839434205885e-05
0.03731272962910174
-1.340991625308599e-08
2.049574013636108e-05
0.03729466426799616
-1.638803683173409e-08
1.81042245822375e-05
0.03727927907299002
-1.991104371896252e-08
1.543181409648278e-05
0.03726674909100439
-2.389010791202619e-08
1.258530828631048e-05
0.0372570791077446
-2.793097502221246e-08
9.734277901616446e-06
0.03725037456762362
-3.291976175336731e-08
6.779752740721926e-06
0.03724695785701358
-3.860322900503082e-08
3.504581179993539e-06
0.03724655192789613
-4.248502815426402e-08
5.027308674729241e-07
0.03724941370652846
-4.715796977471498e-08
-2.754057610157509e-06
0.0372553683615533
-5.208641129066444e-08
-5.83520126548913e-06
0.03726504544379986
-5.714369022511676e-08
-9.545273099351779e-06
0.03727695555359198
-6.193888898250498e-08
-1.176560093599934e-05
0.03729190437686287
-6.576491948598025e-08
-1.479422905603736e-05
-7.063568687669291e-08
-1.177122681378734e-05
0.0399650645238236
2.270150496703508e-14
8.251796004186833e-06
0.03994166880820925
5.780658601488876e-14
2.339571559744545e-05
0.03991167835048973
9.476680386379703e-14
2.999045768648762e-05
0.03987807773359516
1.32051792149646e-13
3.360061684484565e-05
0.03984203031382558
1.678933238960333e-13
3.604741970347519e-05
0.03980466267547598
2.01928267245567e-13
3.736763826729932e-05
0.03976667557047041
2.328951284171104e-13
3.798710490803115e-05
0.03972838406097343
2.636694168871261e-13
3.829150938289877e-05
0.03969002261428942
2.890702322034277e-13
3.836144655593234e-05
0.03965168586587039
3.16230789764925e-13
3.833674827408346e-05
0.03961346524333532
3.443230235545288e-13
3.822062237151812e-05
0.03957541472716614
3.739245655633921e-13
3.805051598492661e-05
0.03953756790952651
4.09102681396791e-13
3.784681743003455e-05
0.03949994558692968
4.495683429950199e-13
3.762232235762668e-05
0.03946256050153236
5.007116544929933e-13
3.738508512092806e-05
0.03942542014263949
5.613172659751603e-13
3.714035857241533e-05
0.03938852862891725
6.382452076604954e-13
3.689151334688165e-05
0.03935188791936108
7.290562026085886e-13
3.6640709116588e-05
0.03931549854976598
8.421021184032274e-13
3.638936907656643e-05
0.03927936011595583
9.739429664135113e-13
3.613843320041239e-05
0.03924347159893645
1.13433850164698e-12
3.588851629961067e-05
0.03920783157911584
1.319349985369398e-12
3.564001897503551e-05
0.03917243837957211
1.539893793445659e-12
3.539319854897725e-05
0.03913729016118019
1.792297011140366e-12
3.514821722765005e-05
0.03910238498583862
2.08833760320092e-12
3.490517397919338e-05
0.03906772085748521
2.425429547212823e-12
3.466412676681102e-05
0.03903329574870256
2.815985392568588e-12
3.442510693706493e-05
0.03899910761708057
3.259070946644724e-12
3.418812948408942e-05
0.03896515441519478
3.767848645407792e-12
3.395319941322035e-05
0.03893143409607858
4.343123938875893e-12
3.372031626699099e-05
0.03889794461563369
4.999119378862507e-12
3.348947716746686e-05
0.03886468393382483
5.738664222669147e-12
3.326067805080057e-05
0.03883165001379747
6.576628513972513e-12
3.30339157264206e-05
0.0387988408215242
7.518832269613591e-12
3.280918736433821e-05
0.0387662543246138
8.580103915303133e-12
3.258649131892392e-05
0.03873388849058816
9.769256836590257e-12
3.236582767219171e-05
0.03870174128764192
1.110239018622172e-11
3.21471957413215e-05
0.03866981068237203
1.258894722437529e-11
3.193059711889383e-05
0.03863809464110272
1.424817750201711e-11
3.171603206547666e-05
0.03860659113179316
1.609050961699278e-11
3.150349894059905e-05
0.03857529812155659
1.813291713468624e-11
3.129299857984581e-05
0.03854421358575177
2.039670234227342e-11
3.108452272447971e-05
0.03851333550517379
2.288320441761171e-11
3.087806593934818e-05
0.03848266187210145
2.563284941353868e-11
3.067361671386977e-05
0.03845219070348044
2.863239450211593e-11
3.047115039266523e-05
0.03842192002950481
3.192219982932241e-11
3.027065370100148e-05
0.03839184792547049
3.550096371976019e-11
3.007208153992698e-05
0.03836197250151678
3.937978575071839e-11
2.987539906019245e-05
0.0383322919109819
4.357020447609787e-11
2.9680563056539e-05
0.03830280439179259
4.807925327819886e-11
2.948748893712335e-05
0.03827350821714588
5.285827542492414e-11
2.929614146831888e-05
0.03824440176746898
5.797353468918316e-11
2.910641337258334e-05
0.03821548350757784
6.32690901381115e-11
2.891822037390933e-05
0.03818675194943937
6.879614525146062e-11
2.873151528361848e-05
0.03815820577201627
7.442896646057186e-11
2.854613119393199e-05
0.03812984364089791
7.994482980202403e-11
2.836208163468928e-05
0.03810166432592888
8.537162412176466e-11
2.817926232460035e-05
0.03807366666734414
9.019257108523257e-11
2.799760323505627e-05
0.03804584929436188
9.416237697926545e-11
2.781731554692175e-05
0.03801821096305347
9.690953999578395e-11
2.763827265548663e-05
0.03799074999013684
9.730141623762524e-11
2.746091470409316e-05
0.03796346425630309
9.489714658539566e-11
2.728567800452868e-05
0.03793635132179592
8.812989926201005e-11
2.711288408809066e-05
0.03790940719349611
7.488252764990648e-11
2.694408778724837e-05
0.03788262715768973
5.383135923210701e-11
2.678001058130737e-05
0.03785600437059743
2.044992593540465e-11
2.662278570596085e-05
0.0378295290336054
-2.868331984123466e-11
2.647537036219476e-05
0.03780318952822733
-9.825499588319092e-11
2.633958768278261e-05
0.03777696859842481
-1.979856322759579e-10
2.622108208722577e-05
0.03775084492643234
-3.337832337370004e-10
2.61239194351349e-05
0.03772479305128203
-5.194847783991265e-10
2.605225275091839e-05
0.03769877566955551
-7.717482799945618e-10
2.601793638461421e-05
0.03767274980301879
-1.104173897566047e-09
2.602665488218972e-05
0.03764667015148614
-1.541228833930231e-09
2.608074776098615e-05
0.03762048632592353
-2.114934711375134e-09
2.618532696989674e-05
0.03759414761073988
-2.862405501634972e-09
2.634074578366934e-05
0.03756760951328
-3.825751540442559e-09
2.654081175565815e-05
0.03754084003658814
-5.058944585103417e-09
2.677306768326543e-05
0.0375138426674991
-6.633912915507498e-09
2.70020805455725e-05
0.03748667267972967
-8.615346822922203e-09
2.717610981987448e-05
0.03745944477070738
-1.112722526238238e-08
2.723581224303764e-05
0.03743239420710279
-1.428299472831381e-08
2.70606993590009e-05
0.03740583660906976
-1.819519444448388e-08
2.657048563790553e-05
0.0373801424780338
-2.305655747567127e-08
2.571040552342113e-05
0.03735577306639853
-2.888918210901568e-08
2.438973461433413e-05
0.03733319040261337
-3.590433508519737e-08
2.26078116810702e-05
0.03731272631570931
-4.424288589350288e-08
2.049491982955047e-05
0.03729466040732986
-5.361950777164992e-08
1.810313980990616e-05
0.03727927454555256
-6.450503596576754e-08
1.543045573385147e-05
0.03726674379155077
-7.674500426521448e-08
1.258360886785685e-05
0.03725707302264269
-8.933319951949291e-08
9.732171107874744e-06
0.03725036731316345
-1.046203109278384e-07
6.777410009085379e-06
0.03724694909159778
-1.222708210011313e-07
3.501889143217929e-06
0.03724654163434798
-1.346514561108134e-07
4.996236675965552e-07
0.0372494016247044
-1.496724005379268e-07
-2.757475932276625e-06
0.03725535416139159
-1.657249007693602e-07
-5.838898201696635e-06
0.03726502901676036
-1.82486245542845e-07
-9.54951281561648e-06
0.03727693675012243
-1.994150786882879e-07
-1.17702571732201e-05
0.03729188337328206
-2.128147501834136e-07
-1.479957332898043e-05
-2.338242568441546e-07
-1.17779264337579e-05
0.0399650645238245
2.733594375994399e-14
8.251796009648473e-06
0.03994166880820892
6.94180998445885e-14
2.339571561264789e-05
0.03991167835048724
1.134111966824145e-13
2.999045771241091e-05
0.0398780777335899
1.578742172801868e-13
3.36006168812944e-05
0.03984203031381688
2.009291838904024e-13
3.604741975004721e-05
0.0398046626754638
2.42637990838519e-13
3.736763832257125e-05
0.03976667557045432
2.812647963669695e-13
3.798710497141853e-05
0.03972838406095492
3.220608212295625e-13
3.829150945139699e-05
0.03969002261426769
3.560625925977078e-13
3.836144663067575e-05
0.0396516858658469
3.961984907786569e-13
3.833674835129607e-05
0.03961346524331196
4.392619500935426e-13
3.822062245051024e-05
0.03957541472714372
4.875778891466581e-13
3.805051606512578e-05
0.03953756790950795
5.454036530660204e-13
3.784681751001885e-05
0.03949994558691568
6.145281526074856e-13
3.762232243789075e-05
0.03946256050152656
7.001042573969042e-13
3.738508520030635e-05
0.03942542014264231
8.036158317458476e-13
3.714035865254491e-05
0.03938852862893297
9.31495980402509e-13
3.689151342669288e-05
0.03935188791938966
1.084206768895054e-12
3.664070919879187e-05
0.03931549854981217
1.27011567024161e-12
3.638936916010492e-05
0.03927936011601958
1.488236265281212e-12
3.613843328894931e-05
0.03924347159902267
1.749742193064322e-12
3.588851639218322e-05
0.03920783157922501
2.051678313997439e-12
3.564001907603445e-05
0.03917243837970903
2.408863596326544e-12
3.539319865775446e-05
0.03913729016134634
2.816578634653318e-12
3.514821734918898e-05
0.0391023849860386
3.293394049408408e-12
3.490517411350766e-05
0.03906772085772174
3.833709574626175e-12
3.466412691948848e-05
0.03903329574898014
4.459382428372176e-12
3.442510710917535e-05
0.03899910761740279
5.165446226178071e-12
3.418812968203375e-05
0.03896515441556622
5.976147760665833e-12
3.395319963942856e-05
0.03893143409650359
6.887887146681133e-12
3.372031652913858e-05
0.0388979446161169
7.92750246406952e-12
3.3489477469682e-05
0.03886468393437075
9.093869318005871e-12
3.326067840245572e-05
0.03883165001441058
1.041448464486557e-11
3.30339161339613e-05
0.03879884082220877
1.189334694528954e-11
3.280918783908271e-05
0.03876625432537378
1.355672259571418e-11
3.258649187031241e-05
0.03873388849142653
1.541446374938043e-11
3.23658283141479e-05
0.03870174128856167
1.749314300323093e-11
3.214719648635871e-05
0.03866981068337388
1.980436434432255e-11
3.193059798478096e-05
0.03863809464218759
2.23790544725381e-11
3.171603306797964e-05
0.03860659113295884
2.523056647889627e-11
3.150350010140218e-05
0.03857529812279877
2.838524026450038e-11
3.129299992060491e-05
0.03854421358706595
3.187452291561322e-11
3.108452426800011e-05
0.03851333550654618
3.569854939699936e-11
3.087806771754838e-05
0.03848266187352282
3.992006864472244e-11
3.067361874936897e-05
0.03845219070492699
4.451510103866421e-11
3.047115272643299e-05
0.03842192003095379
4.95462198079338e-11
3.027065636256537e-05
0.0383918479268879
5.500929421300043e-11
3.0072084571005e-05
0.03836197250285794
6.091884226940876e-11
2.987540250436677e-05
0.03833229191219095
6.729182785294531e-11
2.968056695884614e-05
0.03830280439280396
7.413700386972708e-11
2.948749334268001e-05
0.03827350821785362
8.137459762084022e-11
2.929614644738372e-05
0.03824440176777928
8.910959300149304e-11
2.910641895156906e-05
0.03821548350731944
9.708930236983937e-11
2.891822665276794e-05
0.03818675194843349
1.053971105295829e-10
2.873152229795885e-05
0.03815820577003314
1.138317618947759e-10
2.854613901029927e-05
0.03812984363758479
1.220350516889625e-10
2.836209037057533e-05
0.03810166432093007
1.300589332396656e-10
2.817927197952042e-05
0.03807366666010305
1.370752936843889e-10
2.799761395596048e-05
0.03804584928417525
1.427005510664136e-10
2.781732740077231e-05
0.03801821094909896
1.463505526381774e-10
2.763828564580146e-05
0.03799074997111718
1.462162986035432e-10
2.746092907669179e-05
0.03796346423077586
1.416171478961859e-10
2.728569363024154e-05
0.03793635128774948
1.300584374001456e-10
2.7112901105767e-05
0.03790940714805164
1.081650622517701e-10
2.694410642209065e-05
0.03788262709767322
7.386451691951113e-11
2.678003035077789e-05
0.0378560042911431
1.990682301102738e-11
2.662280707733479e-05
0.03782952892886802
-5.914506596079343e-11
2.64753927394477e-05
0.03780318939107164
-1.707759466940512e-10
2.633961031836261e-05
0.03777696841831289
-3.306071362931409e-10
2.622110537964621e-05
0.03775084469157947
-5.480721815348521e-10
2.612394102009961e-05
0.0377247927462948
-8.454695163044246e-10
2.605227126541599e-05
0.03769877527221092
-1.249700904035468e-09
2.601795203076197e-05
0.03767274928873056
-1.782731096494106e-09
2.602666202994365e-05
0.03764666949070233
-2.484183400954182e-09
2.60807409731233e-05
0.03762048548158212
-3.406044384073295e-09
2.618530021785706e-05
0.03759414653851927
-4.608528350902827e-09
2.634068917089514e-05
0.03756760815806337
-6.160160008004309e-09
2.65407148463024e-05
0.03754083833130972
-8.148200494967306e-09
2.677291598768226e-05
0.03751384052971785
-1.06884924210294e-08
2.700185614521731e-05
0.03748667002233129
-1.388647377004047e-08
2.717577848272766e-05
0.03745944147759773
-1.793280401306413e-08
2.723535027685125e-05
0.03743239014191617
-2.301377920237334e-08
2.706006642616048e-05
0.03740583165301753
-2.929776220550523e-08
2.656959142283265e-05
0.0373801364980962
-3.706957037236512e-08
2.570916788810578e-05
0.03735576595268548
-4.638306344380062e-08
2.438803924484703e-05
0.03733318203627611
-5.753517220867267e-08
2.260554719988534e-05
0.0373127166779259
-7.073168252638223e-08
2.049184710250733e-05
0.03729464948223941
-8.558346250027367e-08
1.809915960060502e-05
0.03727926225244718
-1.027411005297986e-07
1.542546582102363e-05
0.03726673008967863
-1.220068528550392e-07
1.257742458683202e-05
0.03725705803026604
-1.41882019827044e-07
9.724608208223316e-06
0.03725035071941635
-1.658965200359379e-07
6.768587039520795e-06
0.03724693054995341
-1.936914454432495e-07
3.491590073041723e-06
0.03724652140212292
-2.133099086314461e-07
4.878062729659428e-07
0.03724937977444979
-2.371362408510022e-07
-2.770908493052916e-06
0.03725533052847113
-2.626499421871496e-07
-5.853828983785442e-06
0.03726500416212158
-2.893581654665739e-07
-9.566761732563974e-06
0.03727691054466012
-3.166576456989789e-07
-1.178913997223566e-05
0.03729185729652347
-3.382025345142849e-07
-1.482136407897823e-05
-3.731208561789799e-07
-1.180229559045482e-05
0.03996506452382606
2.756399238748351e-14
8.251796013571498e-06
0.03994166880821082
7.011160925665298e-14
2.339571562307823e-05
0.03991167835048896
1.147175223757247e-13
2.999045772977026e-05
0.03987807773359089
1.602576595304809e-13
3.36006169053162e-05
0.03984203031381649
2.050020610955736e-13
3.604741978023296e-05
0.03980466267546229
2.49382665103587e-13
3.736763835752204e-05
0.0397666755704512
2.913756809252022e-13
3.798710501115867e-05
0.03972838406095286
3.382699459791138e-13
3.829150949238632e-05
0.03969002261426482
3.777681332381728e-13
3.836144667664659e-05
0.03965168586584599
4.279364908140331e-13
3.833674839745248e-05
0.03961346524331533
4.828170250223707e-13
3.8220622497514e-05
0.03957541472715349
5.46994327585508e-13
3.805051611284147e-05
0.03953756790952735
6.235476834567881e-13
3.78468175584539e-05
0.03949994558694704
7.172990222020934e-13
3.762232248801904e-05
0.03946256050157371
8.312237228922561e-13
3.73850852527205e-05
0.0394254201427075
9.710213692279525e-13
3.714035870932724e-05
0.03938852862902049
1.140209613167451e-12
3.689151348884213e-05
0.03935188791950149
1.344123933461284e-12
3.664070926963241e-05
0.03931549854995302
1.58834126902278e-12
3.638936924083413e-05
0.03927936011619126
1.87631626986624e-12
3.613843338427369e-05
0.03924347159923051
2.217850977776923e-12
3.588851650328354e-05
0.03920783157947073
2.612810863611374e-12
3.564001920931741e-05
0.03917243837999861
3.077338013728586e-12
3.539319881437364e-05
0.03913729016168169
3.606824645126071e-12
3.514821753742523e-05
0.03910238498642638
4.224707122396261e-12
3.490517433482587e-05
0.03906772085816426
4.922538067891807e-12
3.466412718419046e-05
0.03903329574948448
5.73054661022811e-12
3.442510741959721e-05
0.03899910761797209
6.638223648230046e-12
3.418813005067728e-05
0.03896515441620804
7.681183604012795e-12
3.395320007018547e-05
0.03893143409722104
8.84918748307694e-12
3.372031703698665e-05
0.03889794461691788
1.018118980314588e-11
3.348947806088122e-05
0.03886468393525853
1.16701397840569e-11
3.326067909461445e-05
0.03883165001539243
1.335539842265186e-11
3.303391693686927e-05
0.03879884082328782
1.523682348815148e-11
3.280918877296978e-05
0.03876625432655572
1.735122302080993e-11
3.258649294958902e-05
0.03873388849271356
1.970639671916704e-11
3.236582956237168e-05
0.03870174128995763
2.233881071711469e-11
3.214719792257286e-05
0.03866981068487747
2.525932372702318e-11
3.193059963766235e-05
0.03863809464379964
2.85082904260444e-11
3.171603496122247e-05
0.03860659113467431
3.209992548446647e-11
3.150350226875195e-05
0.03857529812461045
3.606762119761771e-11
3.129300239440855e-05
0.03854421358896637
4.044932601173233e-11
3.108452708234238e-05
0.03851333550851384
4.524405075939267e-11
3.087807092021907e-05
0.03848266187554441
5.05302854314634e-11
3.06736223725251e-05
0.03845219070696625
5.627561199449794e-11
3.047115683105617e-05
0.03842192003297749
6.255835842404411e-11
3.027066099009781e-05
0.03839184792884635
6.937167002558584e-11
3.00720897822911e-05
0.0383619725046853
7.673202030105685e-11
2.987540836142625e-05
0.03833229191380528
8.46598477260674e-11
2.968057352556338e-05
0.03830280439410921
9.316466784873816e-11
2.948750068194475e-05
0.0382735082186928
1.021426060282081e-10
2.929615466188205e-05
0.03824440176801611
1.117280046673616e-10
2.910642807166733e-05
0.03821548350669603
1.215953762077054e-10
2.89182368272694e-05
0.03818675194668368
1.318523264022074e-10
2.873153357021146e-05
0.03815820576681329
1.422416820946127e-10
2.85461514733212e-05
0.03812984363235664
1.523054149097115e-10
2.836210419886962e-05
0.03810166431315718
1.621144694859489e-10
2.81792871561311e-05
0.03807366664892968
1.706114719211104e-10
2.799763070311672e-05
0.03804584926851828
1.773121916645582e-10
2.781734581102814e-05
0.03801821092769075
1.814791048897068e-10
2.763830570963049e-05
0.03799074994193188
1.808050205851901e-10
2.746095118006491e-05
0.03796346419156534
1.744381169475787e-10
2.72857175546267e-05
0.03793635123535698
1.592036611578906e-10
2.71129270711951e-05
0.03790940707793366
1.308009263043587e-10
2.694413479437106e-05
0.03788262700482194
8.661942124219836e-11
2.678006036246678e-05
0.03785600416782608
1.739257683217014e-11
2.662283951435183e-05
0.03782952876577505
-8.377508961574931e-11
2.647542668379813e-05
0.03780318917681055
-2.264473439270808e-10
2.633964463704835e-05
0.03777696813597945
-4.305998353147199e-10
2.622114082332077e-05
0.03775084432223055
-7.082308050362292e-10
2.612397390535941e-05
0.03772479226509956
-1.087946524755905e-09
2.605229960411416e-05
0.03769877464322156
-1.604239938387681e-09
2.601797641137295e-05
0.03767274847210809
-2.285268720067012e-09
2.602667364354848e-05
0.03764666843849195
-3.181937704729547e-09
2.608073136081288e-05
0.03762048413362658
-4.361151467580637e-09
2.618525996043408e-05
0.03759414482301451
-5.900406130671418e-09
2.634060247505218e-05
0.03756760598597562
-7.888027953986374e-09
2.654056488876689e-05
0.03754083559510102
-1.04362740735077e-08
2.677267892631686e-05
0.03751383709855025
-1.369347049033853e-08
2.700150150271722e-05
0.03748666575888795
-1.779664658595444e-08
2.71752498044264e-05
0.03745943620574212
-2.298313560369216e-08
2.723460344208848e-05
0.03743238365304564
-2.94947695831748e-08
2.705903364717842e-05
0.03740582376967705
-3.754062684505182e-08
2.656812618991251e-05
0.03738012703425423
-4.746655741697582e-08
2.57071323640282e-05
0.03735575474819268
-5.935244856261119e-08
2.438525539977111e-05
0.0373331689339419
-7.355379945160163e-08
2.260183283173264e-05
0.03731270168067942
-9.031714358099478e-08
2.048683867948427e-05
0.03729463258452606
-1.091866767494016e-07
1.809269932727104e-05
0.03727924340662398
-1.309322788440058e-07
1.541736904485267e-05
0.03726670932163827
-1.553270616215368e-07
1.25674051643519e-05
0.03725703558157661
-1.805278292192239e-07
9.712385846525692e-06
0.03725032636901326
-2.108979489364125e-07
6.754213973090442e-06
0.03724690400583656
-2.460879933680919e-07
3.474759710367828e-06
0.03724649319258799
-2.710032239814575e-07
4.685065539512282e-07
0.0372493503048253
-3.01274320882532e-07
-2.792974163737012e-06
0.03725529983595684
-3.337132137650871e-07
-5.878467863796383e-06
0.03726497344605605
-3.67706987398777e-07
-9.595261279283437e-06
0.03727687974907729
-4.026339642866524e-07
-1.182032670332777e-05
0.03729182911209551
-4.30162289962708e-07
-1.485740326271196e-05
-4.753913938444795e-07
-1.184183521895664e-05
0.03996506452382696
2.542822028513986e-14
8.251796015856823e-06
0.03994166880821145
6.462099508739903e-14
2.33957156294116e-05
0.0399116783504888
1.05850332084859e-13
2.999045774060608e-05
0.03987807773358961
1.483818897406996e-13
3.360061692059218e-05
0.03984203031381395
1.907077406818773e-13
3.604741979974303e-05
0.03980466267545934
2.337682291850934e-13
3.736763838017173e-05
0.0397666755704476
2.755093609838122e-13
3.798710503767502e-05
0.03972838406095305
3.242505856075968e-13
3.829150951871666e-05
0.03969002261426608
3.660643425677888e-13
3.836144670887782e-05
0.03965168586585281
4.217740705529019e-13
3.833674842968882e-05
0.03961346524333018
4.839611615140786e-13
3.822062253178574e-05
0.03957541472718033
5.582722269771122e-13
3.805051614891808e-05
0.03953756790956911
6.472629397886864e-13
3.784681759786536e-05
0.03949994558700832
7.571090673287622e-13
3.762232253137434e-05
0.03946256050165744
8.898640056071239e-13
3.738508530265519e-05
0.03942542014281882
1.05285089092313e-12
3.714035876722413e-05
0.03938852862916233
1.248888739477696e-12
3.689151355827338e-05
0.03935188791967916
1.484726393212494e-12
3.664070935305712e-05
0.03931549855016973
1.765747930229959e-12
3.638936934253399e-05
0.0392793601164519
2.096351805687257e-12
3.613843350832541e-05
0.03924347159953964
2.4870280139906e-12
3.588851665366537e-05
0.03920783157983228
2.937798469614303e-12
3.564001939298939e-05
0.03917243838041898
3.46664816251262e-12
3.539319903464826e-05
0.03913729016216379
4.068154951265619e-12
3.514821780456062e-05
0.03910238498697874
4.768894474566752e-12
3.49051746516441e-05
0.03906772085878887
5.55867813090638e-12
3.466412756458305e-05
0.0390332957501919
6.471884209439977e-12
3.442510786656661e-05
0.03899910761876356
7.495781653439935e-12
3.418813058181122e-05
0.03896515441709533
8.670804820949199e-12
3.395320068974739e-05
0.03893143409820542
9.984226775080017e-12
3.372031776611982e-05
0.03889794461801122
1.148029138456935e-11
3.348947890646971e-05
0.03886468393646208
1.314965780645009e-11
3.326068008114224e-05
0.03883165001671687
1.503675074074687e-11
3.303391807550769e-05
0.0387988408247345
1.713993075197041e-11
3.280919009107002e-05
0.03876625432813283
1.950064888021048e-11
3.258649446421156e-05
0.03873388849442106
2.212591914097807e-11
3.236583130437594e-05
0.03870174129180082
2.50565347114658e-11
3.214719991479846e-05
0.03866981068685287
2.830307716109506e-11
3.193060191665754e-05
0.03863809464590796
3.191032709725288e-11
3.171603755548276e-05
0.03860659113690769
3.589259618099175e-11
3.150350522037634e-05
0.03857529812695921
4.028652864141972e-11
3.129300574248865e-05
0.03854421359142
4.513322081587363e-11
3.108453086838164e-05
0.03851333551104446
5.043033551845732e-11
3.08780752024413e-05
0.03848266187813472
5.626449979415583e-11
3.067362718882481e-05
0.03845219070957007
6.25979926102474e-11
3.047116225566842e-05
0.03842192003555302
6.951720059840582e-11
3.027066707167701e-05
0.03839184793133112
7.701315622722982e-11
3.007209659394473e-05
0.03836197250699702
8.510273577390891e-11
2.987541597695594e-05
0.03833229191584207
9.380773371629147e-11
2.968058202064134e-05
0.03830280439575232
1.03137580155738e-10
2.948751013038544e-05
0.03827350821974584
1.129745173547827e-10
2.929616518806474e-05
0.03824440176831196
1.234690218285849e-10
2.910643970627309e-05
0.03821548350591313
1.342547142897346e-10
2.891824975278387e-05
0.03818675194449231
1.454531229115813e-10
2.873154783312941e-05
0.03815820576278713
1.567762291278807e-10
2.854616718351096e-05
0.03812984362582322
1.677112872673132e-10