/*--------------------------------*- C++ -*----------------------------------*\
| =========                 |                                                 |
| \\      /  F ield         | OpenFOAM: The Open Source CFD Toolbox           |
|  \\    /   O peration     | Version:  v1812                                 |
|   \\  /    A nd           | Web:      www.OpenFOAM.com                      |
|    \\/     M anipulation  |                                                 |
\*---------------------------------------------------------------------------*/
FoamFile
{
    version     2.0;
    format      ascii;
    class       volVectorField;
    location    "1000";
    object      U;
}
// * * * * * * * * * * * * * * * * * * * * * * * * * * * * * * * * * * * * * //

dimensions      [0 1 -1 0 0 0 0];


internalField   nonuniform List<vector> 
40000
(
(0.99940365937162 9.058409925064315e-14 0.0002450720929624707)
(0.9988031787424406 2.37517260567581e-13 0.0005822440092953618)
(0.9982082136399054 3.9574235377431e-13 0.0007577464534958317)
(0.9974070522728864 5.526870869291511e-13 0.0008449936653181268)
(0.9965111795179935 6.972967505868878e-13 0.0008959320315410291)
(0.9955880216290139 8.20324519311605e-13 0.0009225537227247833)
(0.9946455054686238 9.193238028111874e-13 0.000932994221136919)
(0.9936899585034573 9.817207836588328e-13 0.0009345581595676249)
(0.9927302474393942 1.022567525351154e-12 0.000931646084952968)
(0.9917709258896182 1.02116983702152e-12 0.0009259489920666916)
(0.9908136559938999 9.889997165161192e-13 0.0009182963936686237)
(0.9898598808059532 9.340602618054919e-13 0.0009095340855401218)
(0.9889109937263055 8.517235065364215e-13 0.0009002251810076889)
(0.9879675153863183 7.572645662564738e-13 0.0008907013065482754)
(0.987029848470302 6.442899179095049e-13 0.000881146640557111)
(0.9860982388887605 5.319401458409022e-13 0.0008716669824440356)
(0.9851728171486157 4.091348875881267e-13 0.0008623229445606986)
(0.9842536531840127 2.978617519586258e-13 0.0008531463272159894)
(0.9833407742615226 1.844250571688924e-13 0.0008441516864296448)
(0.9824341792631491 9.074773865206271e-14 0.000835343429724674)
(0.9815338484435481 3.367776153549389e-16 0.0008267199090429659)
(0.9806397502301566 -6.171608582460588e-14 0.0008182760346201691)
(0.979751844940287 -1.137609292264374e-13 0.0008100048948128379)
(0.9788700882288637 -1.309234301144926e-13 0.0008018987753902766)
(0.9779944323327949 -1.290513972529493e-13 0.0007939497626389161)
(0.9771248280170891 -8.326540380253259e-14 0.0007861501200752195)
(0.9762612246277632 -4.510629417036981e-15 0.000778492481740137)
(0.9754035713948118 1.311570021929088e-13 0.0007709699663318465)
(0.9745518169200188 3.183848858443096e-13 0.0007635762089328866)
(0.9737059101914235 5.821376946718515e-13 0.0007563053718207111)
(0.9728657998558837 9.220667475926266e-13 0.0007491521230883364)
(0.9720314350199967 1.365063590514855e-12 0.0007421116011941409)
(0.9712027645818391 1.917223361693644e-12 0.0007351793906938917)
(0.970379737768938 2.605205880528576e-12 0.0007283514666470935)
(0.9695623036414966 3.443949436855265e-12 0.0007216241665087449)
(0.9687504115434589 4.46026032431168e-12 0.0007149941608874064)
(0.9679440104455843 5.67401971279318e-12 0.0007084583791437516)
(0.9671430498462624 7.117899321034404e-12 0.0007020140397022791)
(0.966347478558921 8.81108404895363e-12 0.0006956585521094999)
(0.9655572460237358 1.079354845797505e-11 0.0006893895079024614)
(0.9647723013801854 1.309183785554646e-11 0.0006832047194765401)
(0.9639925936150622 1.573082898815962e-11 0.0006771020173595616)
(0.9632180727175262 1.877628044548939e-11 0.0006710794579305436)
(0.962448687768825 2.221068007440764e-11 0.0006651351198785181)
(0.9616843889685512 2.614381780837346e-11 0.0006592670372717581)
(0.9609251276892887 3.05479064290723e-11 0.0006534735620286938)
(0.9601708532566849 3.551442620590108e-11 0.00064775262225401)
(0.9594215206964718 4.107598276854479e-11 0.0006421025209527557)
(0.9586770807348464 4.727459903660412e-11 0.0006365214411685776)
(0.957937489080022 5.415963918471655e-11 0.0006310070876895733)
(0.9572027040338119 6.186793624019384e-11 0.0006255580873069856)
(0.9564726789443327 7.029327743625995e-11 0.0006201718573581537)
(0.9557473802050495 7.978706408229433e-11 0.0006148465239185038)
(0.9550267663749797 9.018484131914783e-11 0.0006095806298320043)
(0.9543108002519969 1.017421953606925e-10 0.0006043709474506968)
(0.9535994582738146 1.147672816729811e-10 0.0005992173257346251)
(0.9528926935086651 1.290488148517815e-10 0.0005941172430725893)
(0.9521904902497877 1.4544101179401e-10 0.0005890693255374781)
(0.9514928131645559 1.639871188868052e-10 0.0005840758922354261)
(0.9507996172025569 1.850770650717615e-10 0.0005791338698073475)
(0.9501108950401682 2.10335808292582e-10 0.0005742493687344206)
(0.9494265677122582 2.39711574451109e-10 0.0005694266362825271)
(0.9487465951834029 2.755672283223902e-10 0.0005646691308771798)
(0.9480709179616434 3.206615627170861e-10 0.0005599975035187718)
(0.9473993715607726 3.761379318055892e-10 0.0005554190066494017)
(0.9467318879052282 4.496299274948323e-10 0.0005509617608970433)
(0.9460682181423553 5.454930730708905e-10 0.0005466652583596395)
(0.9454080627876162 6.719622999157739e-10 0.0005425519104412323)
(0.9447511958026303 8.468294024125415e-10 0.0005386980377550543)
(0.9440969613615875 1.080509537553415e-09 0.0005351687310338319)
(0.9434448893692285 1.402294277670824e-09 0.000531994045528235)
(0.942794300546139 1.846824958668802e-09 0.0005293178442202963)
(0.94214390937591 2.446863736551405e-09 0.0005272207910077797)
(0.9414928174362684 3.261025582970205e-09 0.000525730013854351)
(0.9408397793689171 4.366219192300454e-09 0.0005248924655007233)
(0.9401834959690278 5.851583359697939e-09 0.0005247196197244382)
(0.9395227294270889 7.823948408116923e-09 0.0005251346059276014)
(0.9388565339227238 1.039858225166099e-08 0.0005259743475440326)
(0.9381843297854447 1.370360519685003e-08 0.0005267259816694414)
(0.937506883544624 1.787722812102219e-08 0.0005267824489182847)
(0.9368266386773544 2.291865608255106e-08 0.0005254523650693036)
(0.9361460816078885 2.897453143956603e-08 0.0005208616621980126)
(0.9354749997376597 3.590692351139494e-08 0.0005124311887197183)
(0.9348194242236174 4.34054638066867e-08 0.0004995450545547997)
(0.9341910703148146 5.167660085413078e-08 0.0004811634361154626)
(0.9336025384965614 6.01462568758437e-08 0.0004592306624299619)
(0.9330618998774503 6.859956423728123e-08 0.0004325470321742302)
(0.9325794151200718 7.792380873092906e-08 0.0004017448824715135)
(0.9321600871718437 8.688828751644231e-08 0.0003687034056733295)
(0.931807699986401 9.654570338780651e-08 0.0003330904156330908)
(0.931534130022873 1.076702697205803e-07 0.000297848139164761)
(0.9313241507575186 1.194018358467459e-07 0.0002563567679549807)
(0.93119427912523 1.35860555466347e-07 0.0002032477205727132)
(0.931152613367315 1.507646490431199e-07 0.0001649286582621426)
(0.931177253589116 1.706361799451236e-07 0.0001146106354578811)
(0.9312895051886698 1.942131394473571e-07 6.091297916180684e-05)
(0.9314733290920502 2.224748816910791e-07 -1.21210854357044e-05)
(0.9317778217425686 2.616664187857992e-07 -8.83932296581013e-05)
(0.9320380186494971 2.923296450052579e-07 -0.0001977950791147476)
(0.9325868330901796 3.795842731748126e-07 -0.0002301300610729228)
(0.9994036593716621 4.854766425773323e-13 0.0002450720930593433)
(0.9988031787425367 1.257710589803075e-12 0.0005822440095026711)
(0.9982082136400459 2.083798145092003e-12 0.0007577464538057713)
(0.9974070522730247 2.921973815338351e-12 0.0008449936657451127)
(0.9965111795180902 3.729273205576862e-12 0.0008959320320850337)
(0.9955880216290235 4.48918066066125e-12 0.0009225537233910357)
(0.9946455054685167 5.174654619727105e-12 0.0009329942219216725)
(0.9936899585031731 5.827623258661304e-12 0.0009345581604735158)
(0.9927302474389788 6.362929328213801e-12 0.0009316460860000258)
(0.9917709258889379 6.891838993545871e-12 0.0009259489932185374)
(0.9908136559930927 7.408006241415088e-12 0.0009182963949088774)
(0.9898598808048749 7.922099699092634e-12 0.0009095340868620715)
(0.9889109937250814 8.507016291205491e-12 0.0009002251824002061)
(0.9879675153848779 9.159271215707853e-12 0.0008907013080066609)
(0.9870298484687023 9.976475403922468e-12 0.0008811466420682073)
(0.9860982388870384 1.093828128373483e-11 0.0008716669840064053)
(0.9851728171467174 1.216743083879114e-11 0.0008623229461579987)
(0.9842536531821117 1.362141436619587e-11 0.0008531463288502038)
(0.9833407742594218 1.54486033447964e-11 0.0008441516880798735)
(0.9824341792611768 1.758783314795765e-11 0.0008353434313948777)
(0.9815338484413463 2.020806986937317e-11 0.0008267199107089324)
(0.9806397502282295 2.324435118017157e-11 0.0008182760362852774)
(0.9797518449381112 2.687963876592466e-11 0.0008100048964502039)
(0.9788700882271124 3.105737814091309e-11 0.0008018987770033942)
(0.9779944323307929 3.597175689246275e-11 0.0007939497641996815)
(0.9771248280156665 4.158953739329234e-11 0.0007861501215865569)
(0.9762612246261172 4.811269334402457e-11 0.0007784924831740199)
(0.9754035713939148 5.554016810680581e-11 0.0007709699676931264)
(0.9745518169189558 6.408602069046503e-11 0.0007635762101967879)
(0.9737059101912919 7.378274361821038e-11 0.0007563053729963683)
(0.9728657998556698 8.486412952007845e-11 0.0007491521241563174)
(0.9720314350209152 9.739786630791662e-11 0.0007421116021704264)
(0.9712027645827878 1.116346660779045e-10 0.0007351793915687196)
(0.9703797377712281 1.2769103880741e-10 0.0007283514674465766)
(0.9695623036439536 1.458243381975626e-10 0.0007216241672374843)
(0.9687504115474664 1.662029258645913e-10 0.0007149941615852988)
(0.9679440104498985 1.891067363811528e-10 0.0007084583798322075)
(0.967143049852335 2.14721549561136e-10 0.0007020140404431338)
(0.9663474785654137 2.433822851769291e-10 0.0006956585529437115)
(0.9655572460321615 2.752865115689133e-10 0.0006893895089169345)
(0.9647723013891316 3.107561940163641e-10 0.0006832047207451476)
(0.9639925936259673 3.501393052832563e-10 0.0006771020189838817)
(0.9632180727290979 3.935351006915203e-10 0.0006710794600422713)
(0.9624486877821146 4.415949239495393e-10 0.0006651351225872779)
(0.9616843889826304 4.941603371234466e-10 0.0006592670407692219)
(0.9609251277046237 5.519375835478082e-10 0.0006534735664654276)
(0.9601708532726245 6.149000585673656e-10 0.000647752627845277)
(0.9594215207130689 6.833091451518843e-10 0.00064210252793177)
(0.9586770807513747 7.57371648785304e-10 0.0006365214497801427)
(0.957937489096108 8.371655321728129e-10 0.0006310070982032659)
(0.9572027040489354 9.220840120768986e-10 0.0006255581001006857)
(0.9564726789566153 1.013004797168455e-09 0.0006201718726319728)
(0.9557473802152168 1.107532949197752e-09 0.0006148465422330757)
(0.9550267663785905 1.206549065141248e-09 0.0006095806514135217)
(0.9543108002503252 1.30762065926693e-09 0.0006043709727639614)
(0.9535994582616962 1.407602392557383e-09 0.0005992173553941275)
(0.9528926934838229 1.506326976089011e-09 0.0005941172771988564)
(0.9521904902090176 1.595301220822858e-09 0.0005890693649755366)
(0.9514928131004983 1.670869315925221e-09 0.0005840759373352919)
(0.9507996171093434 1.725492381184055e-09 0.0005791339207674668)
(0.9501108949109741 1.741409126707143e-09 0.00057424942673117)
(0.9494265675292926 1.710536405299438e-09 0.0005694267007031967)
(0.9487465949405975 1.605336020614796e-09 0.0005646692024784088)
(0.9480709176330797 1.392827970983398e-09 0.0005599975829549237)
(0.9473993711196882 1.047359433394923e-09 0.0005554190916495575)
(0.9467318873327356 4.944718581428399e-10 0.000550961853202009)
(0.9460682173764544 -3.20743324519062e-10 0.0005466653548584913)
(0.9454080617931272 -1.483709357033211e-09 0.0005425520072268511)
(0.9447511945173178 -3.148351917184906e-09 0.000538698136061997)
(0.944096959669974 -5.41699551486233e-09 0.000535168820944664)
(0.9434448872219486 -8.523240176734923e-09 0.0005319941189497998)
(0.9427942977728555 -1.272513489084735e-08 0.0005293178984052389)
(0.9421439058017328 -1.826301650054699e-08 0.000527220801052096)
(0.941492812893806 -2.55466414191673e-08 0.000525729953857388)
(0.9408397736130443 -3.508691413369084e-08 0.000524892307049989)
(0.9401834887189672 -4.749652211703425e-08 0.0005247193295500337)
(0.9395227203310849 -6.346400359439132e-08 0.000525134146695792)
(0.9388565225292868 -8.38927383798738e-08 0.0005259736673127158)
(0.9381843155856284 -1.0995781068352e-07 0.0005267250450350841)
(0.9375068656512993 -1.427419614965992e-07 0.0005267811098110278)
(0.9368266168447639 -1.843542837395835e-07 0.0005254506620520109)
(0.936146053589637 -2.366905005516965e-07 0.0005208594729410637)
(0.9354749654463128 -3.018407575357445e-07 0.000512428123995689)
(0.9348193818251499 -3.830229113384811e-07 0.0004995410417709255)
(0.9341910174764158 -4.805630511706144e-07 0.0004811575874762392)
(0.9336024758357446 -5.987146685786193e-07 0.0004592223786531353)
(0.9330618236840457 -7.394170517465942e-07 0.0004325359223855958)
(0.9325793246556864 -8.978614098908555e-07 0.0004017297813974331)
(0.9321599852169288 -1.082756517543123e-06 0.0003686852847058473)
(0.9318075762629903 -1.290417746676856e-06 0.0003330679410043021)
(0.9315339872142542 -1.504235445448139e-06 0.0002978211710161567)
(0.9313239904786446 -1.764919889442133e-06 0.0002563310344441193)
(0.9311940770785521 -2.06460926423084e-06 0.000203216685529641)
(0.9311523769311923 -2.273204571530428e-06 0.0001648904919918474)
(0.9311769764089759 -2.526612798757729e-06 0.000114570417440478)
(0.9312891771934472 -2.79666615376198e-06 6.087411362286859e-05)
(0.9314729492599785 -3.077766062345487e-06 -1.215984231225701e-05)
(0.9317773772406719 -3.357240495289055e-06 -8.843169937763458e-05)
(0.9320375273309661 -3.57883839853404e-06 -0.0001978393054061316)
(0.9325862720979622 -3.910659231248675e-06 -0.0002301863926854319)
(0.9994036593716962 6.383800307475744e-13 0.0002450720931452136)
(0.9988031787425456 1.636572850803143e-12 0.0005822440097023985)
(0.9982082136400149 2.676174490676487e-12 0.0007577464540956459)
(0.9974070522729288 3.718114607616845e-12 0.0008449936661264709)
(0.9965111795179202 4.716654039090418e-12 0.0008959320325467487)
(0.995588021628754 5.669754594537328e-12 0.0009225537239266993)
(0.9946455054681821 6.540937460615179e-12 0.0009329942225266228)
(0.993689958502682 7.434520074222111e-12 0.0009345581611260696)
(0.9927302474385837 8.171434626288e-12 0.000931646086743004)
(0.9917709258882117 9.008193820519163e-12 0.0009259489939992332)
(0.9908136559926587 9.894128460370974e-12 0.0009182963957198876)
(0.9898598808041537 1.086579328649381e-11 0.0009095340877076403)
(0.9889109937246664 1.203265490293739e-11 0.0009002251832746086)
(0.9879675153843933 1.341068241034109e-11 0.000890701308926138)
(0.9870298484684633 1.513898811663695e-11 0.0008811466430237132)
(0.9860982388870309 1.721661558350055e-11 0.0008716669850300511)
(0.9851728171468335 1.98188342701035e-11 0.000862322947233829)
(0.9842536531828324 2.291543305006464e-11 0.0008531463300256829)
(0.9833407742600893 2.67245232259284e-11 0.0008441516893304562)
(0.9824341792628793 3.118648884281784e-11 0.0008353434327830561)
(0.9815338484427869 3.657127283134671e-11 0.000826719912203707)
(0.9806397502311666 4.27906692090046e-11 0.0008182760379611717)
(0.9797518449405892 5.017190840320309e-11 0.0008100048982739496)
(0.978870088231549 5.86127806910799e-11 0.000801898779059387)
(0.9779944323346267 6.849518134489444e-11 0.000793949766458573)
(0.9771248280219014 7.972338128217132e-11 0.0007861501241420739)
(0.9762612246316817 9.272739866263281e-11 0.0007784924860079469)
(0.9754035714022944 1.074396270759623e-10 0.0007709699709103409)
(0.9745518169266683 1.243338792138576e-10 0.0007635762137944824)
(0.9737059102022224 1.433830159897906e-10 0.0007563053770963605)
(0.972865799865981 1.651033627029807e-10 0.0007491521287753168)
(0.9720314350348354 1.895261997897349e-10 0.0007421116074522613)
(0.9712027645961682 2.171899718811268e-10 0.0007351793975577337)
(0.9703797377885706 2.482223007001865e-10 0.0007283514743095352)
(0.969562303660858 2.831519823966924e-10 0.000721624175056227)
(0.9687504115686284 3.222152625149108e-10 0.0007149941705566691)
(0.9679440104706748 3.659604885485305e-10 0.0007084583900743386)
(0.9671430498776301 4.146630349042739e-10 0.0007020140522018143)
(0.966347478590237 4.689598957516389e-10 0.0006956585663701944)
(0.9655572460616466 5.291492771653154e-10 0.0006893895243076424)
(0.9647723014180181 5.958206683529411e-10 0.0006832047383225789)
(0.9639925936591645 6.695814636349165e-10 0.000677102039043184)
(0.9632180727618086 7.505440718091807e-10 0.0006710794829557767)
(0.962448687817908 8.399393362375441e-10 0.0006651351486091898)
(0.9616843890181266 9.373373410779753e-10 0.0006592670704129412)
(0.9609251277413902 1.04408096183079e-09 0.0006534736000508084)
(0.9601708533083892 1.160007015611228e-09 0.0006477526658812694)
(0.9594215207481768 1.2855473178948e-09 0.0006421025709431731)
(0.9586770807834131 1.421032610744381e-09 0.0006365214982735696)
(0.9579374891242326 1.566527789712133e-09 0.0006310071527241557)
(0.9572027040717956 1.72071172949361e-09 0.0006255581615265643)
(0.9564726789683291 1.885340107534546e-09 0.0006201719411366531)
(0.9557473802194566 2.055469663212796e-09 0.0006148466192282765)
(0.9550267663608568 2.232923561512594e-09 0.0006095807370634193)
(0.9543108002168806 2.412801288274141e-09 0.0006043710680190991)
(0.953599458196407 2.588792922012285e-09 0.0005992174617038168)
(0.9528926933812231 2.760796160707376e-09 0.0005941173942213732)
(0.9521904900610679 2.911812728093914e-09 0.0005890694949179707)
(0.9514928128852278 3.034865664788523e-09 0.0005840760806625058)
(0.9507996168107209 3.115281473326858e-09 0.0005791340774144827)
(0.9501108945111076 3.117735234040219e-09 0.0005742496002297448)
(0.9494265669722836 3.027004065416e-09 0.0005694268884434192)
(0.9487465942134123 2.788535583792036e-09 0.0005646694068285088)
(0.9480709166548618 2.337052133674319e-09 0.0005599978063712324)
(0.9473993698075676 1.62290281681491e-09 0.000555419326847326)
(0.9467318856336373 4.97273503483133e-10 0.0005509621076518129)
(0.9460682150879851 -1.148147156347796e-09 0.0005466656201963992)
(0.9454080588066683 -3.483484175720654e-09 0.0005425522734379804)
(0.9447511906316871 -6.818369349753438e-09 0.0005386984129351553)
(0.9440969544968555 -1.135691443753633e-08 0.0005351690806505877)
(0.9434448806015937 -1.757127088788222e-08 0.0005319943429948819)
(0.9427942891202798 -2.598551726765189e-08 0.0005293180899725159)
(0.9421438945079648 -3.708837962331513e-08 0.0005272208879720252)
(0.9414927983684077 -5.171616004547095e-08 0.0005257298614525604)
(0.9408397549885722 -7.091590409252889e-08 0.0005248919520815753)
(0.9401834649937438 -9.594164518048276e-08 0.0005247186047576436)
(0.9395226902768156 -1.282115246321306e-07 0.0005251329247341857)
(0.9388564845802583 -1.69556908534577e-07 0.0005259717444459827)
(0.9381842680512106 -2.223624809666575e-07 0.0005267222305633518)
(0.9375068058157074 -2.888246671529916e-07 0.0005267768584670965)
(0.9368265436263986 -3.729305293464852e-07 0.0005254448116773225)
(0.936145961728035 -4.786021992619358e-07 0.0005208515318670626)
(0.9354748532950915 -6.094789313232753e-07 0.0005124167414415767)
(0.9348192461924633 -7.71332961841833e-07 0.0004995255856259166)
(0.9341908535718355 -9.653610998734152e-07 0.0004811358750022011)
(0.9336022836366139 -1.198386652261963e-06 0.0004591922507575739)
(0.9330615985530429 -1.473997402277475e-06 0.0004324959011359078)
(0.9325790662560796 -1.784574272097045e-06 0.0004016772113018551)
(0.9321596985375586 -2.143850310525389e-06 0.0003686205733974503)
(0.9318072491837159 -2.546852616317509e-06 0.0003329884042398569)
(0.9315336272360325 -2.963387264799129e-06 0.0002977259226071412)
(0.9313236023044806 -3.467008430112896e-06 0.0002562244783650436)
(0.9311936357264415 -4.049044709271405e-06 0.0002030893703371574)
(0.9311518915873327 -4.458671130369106e-06 0.0001647418773424994)
(0.9311764517683683 -4.957036602580238e-06 0.0001144019984945069)
(0.9312886063754849 -5.490060554327379e-06 6.06895652122258e-05)
(0.9314723438702384 -6.047885204969159e-06 -1.236731963169351e-05)
(0.9317767330987063 -6.614980682229805e-06 -8.8662664188026e-05)
(0.9320368694083494 -7.063015526910835e-06 -0.0001981090715502977)
(0.9325856277004353 -7.777927083652402e-06 -0.0002304715011722182)
(0.9994036593717289 6.965403185423902e-13 0.0002450720932110643)
(0.9988031787425889 1.789304707094899e-12 0.0005822440098590981)
(0.9982082136400674 2.937446329409247e-12 0.0007577464543242827)
(0.997407052272965 4.107230281887807e-12 0.0008449936664281764)
(0.996511179517936 5.251663633430084e-12 0.0008959320329090468)
(0.9955880216287184 6.375956855445407e-12 0.000922553724338453)
(0.9946455054681582 7.430705211390825e-12 0.0009329942229871131)
(0.9936899585025164 8.575664767150234e-12 0.0009345581615928689)
(0.9927302474387266 9.53784782526476e-12 0.0009316460872858286)
(0.9917709258878594 1.071275446696478e-11 0.0009259489945497685)
(0.9908136559930089 1.198295080628596e-11 0.0009182963962861169)
(0.9898598808039809 1.343576529043535e-11 0.0009095340882885422)
(0.9889109937253273 1.516545810617991e-11 0.0009002251838823633)
(0.9879675153847276 1.725674140474927e-11 0.0008907013095709088)
(0.9870298484696937 1.981209476279026e-11 0.0008811466437231458)
(0.9860982388881915 2.292660932948988e-11 0.0008716669858087557)
(0.9851728171489216 2.672239147820705e-11 0.0008623229481098397)
(0.9842536531851664 3.128157809489055e-11 0.0008531463310412243)
(0.983340774263321 3.677180976238183e-11 0.000844151690500249)
(0.9824341792667538 4.323852016893313e-11 0.0008353434341700367)
(0.9815338484474619 5.093404208699861e-11 0.0008267199138138309)
(0.9806397502369706 5.983695564447742e-11 0.0008182760398839649)
(0.9797518449470217 7.032436908299564e-11 0.0008100049005059234)
(0.9788700882397049 8.229621660048609e-11 0.0008018987817199563)
(0.977994432343178 9.627180955043168e-11 0.0007939497695387452)
(0.9771248280328677 1.120872136519434e-10 0.0007861501277935186)
(0.9762612246427753 1.303973444676253e-10 0.0007784924902233489)
(0.9754035714165703 1.51009707918617e-10 0.0007709699758756724)
(0.9745518169407934 1.746899742151696e-10 0.0007635762195137075)
(0.9737059102203421 2.012608810584245e-10 0.0007563053837928008)
(0.9728657998836808 2.315660022108064e-10 0.0007491521364752992)
(0.9720314350573375 2.654958649561163e-10 0.000742111616416999)
(0.9712027646180275 3.039174541209864e-10 0.0007351794078532084)
(0.9703797378159461 3.468657710720932e-10 0.0007283514862306308)
(0.9695623036874353 3.951662300467864e-10 0.0007216241887260854)
(0.9687504116012955 4.490294194783167e-10 0.0007149941863103864)
(0.9679440105023711 5.092737959274834e-10 0.000708458408090719)
(0.9671430499158837 5.761877971827841e-10 0.0007020140728835033)
(0.9663474786271909 6.506839349505818e-10 0.0006956585899443921)
(0.9655572461054116 7.331010595273366e-10 0.0006893895512461057)
(0.964772301460161 8.242588570294015e-10 0.0006832047689606471)
(0.9639925937075686 9.24947422699103e-10 0.000677102073835528)
(0.9632180728087449 1.035292580198803e-09 0.0006710795224697984)
(0.9624486878691715 1.156975541710758e-09 0.0006651351932170195)
(0.9616843890682957 1.289343271734836e-09 0.0006592671208973058)
(0.9609251277930826 1.434239166072108e-09 0.0006534736568726244)
(0.9601708533580228 1.591387589278288e-09 0.0006477527297990265)
(0.9594215207964749 1.761345087948253e-09 0.0006421026427307526)
(0.9586770808266329 1.944539996841346e-09 0.0006365215786639448)
(0.9579374891612692 2.141020998118036e-09 0.0006310072425045524)
(0.9572027041007473 2.348887755233579e-09 0.0006255582620122284)
(0.9564726789800317 2.570609385369103e-09 0.0006201720524877461)
(0.9557473802203281 2.799184780050487e-09 0.0006148467436054855)
(0.9550267663279065 3.037212519393546e-09 0.0006095808745906623)
(0.9543108001609568 3.277812183580623e-09 0.0006043712200906295)
(0.9535994580920616 3.51214380933887e-09 0.0005992176305088612)
(0.952892693220588 3.740192476493487e-09 0.000594117579043502)
(0.9521904898321332 3.938136399176087e-09 0.00058906969917267)
(0.9514928125536845 4.096383403133071e-09 0.0005840763049318308)
(0.9507996163521152 4.194578451307379e-09 0.0005791343214384844)
(0.9501108938981774 4.183319572021485e-09 0.0005742498695990049)
(0.9494265661165191 4.041767277226435e-09 0.000569427178828854)
(0.9487465930961124 3.69371759153612e-09 0.0005646697220115504)
(0.9480709151477394 3.048020827433564e-09 0.0005599981503456083)
(0.9473993677796305 2.035961950630103e-09 0.0005554196879624333)
(0.9467318830024253 4.488743100992005e-10 0.000550962498310494)
(0.9460682115294626 -1.864050732069613e-09 0.0005466660273696041)
(0.9454080541490298 -5.141291932373985e-09 0.0005425526817430516)
(0.944751184553264 -9.817639878523442e-09 0.0005386988394342675)
(0.9440969463724568 -1.617866062312488e-08 0.0005351694816947086)
(0.9434448701757916 -2.488961692491234e-08 0.0005319946909135893)
(0.9427942754475745 -3.668901085919049e-08 0.0005293183928044743)
(0.9421438766023192 -5.226575092601058e-08 0.000527221032245466)
(0.9414927752720131 -7.2801614226747e-08 0.0005257297296854849)
(0.94083972529408 -9.977897873343463e-08 0.0005248914128866886)
(0.9401834270747537 -1.349721832625563e-07 0.0005247174858292947)
(0.9395226421472648 -1.803923418529976e-07 0.0005251310196441801)
(0.938856423719625 -2.38625457041452e-07 0.0005259687172040494)
(0.9381841917460709 -3.130272917827948e-07 0.0005267177502461258)
(0.9375067098378156 -4.067271155718201e-07 0.0005267700433345331)
(0.9368264261083425 -5.251460493156187e-07 0.0005254353068367849)
(0.9361458150260897 -6.738788266155383e-07 0.0005208385239535761)
(0.935474674465766 -8.577970590155027e-07 0.0005123980884046918)
(0.9348190307793686 -1.084547805596857e-06 0.0004995001521424709)
(0.934190595074305 -1.356116794020721e-06 0.000481100434970391)
(0.933601981325792 -1.681244741980433e-06 0.0004591433596511613)
(0.9330612469639193 -2.064694881494623e-06 0.0004324311098525843)
(0.9325786658627553 -2.496872938167627e-06 0.0004015927224209746)
(0.9321592556758543 -2.995162666944739e-06 0.0003685161884138985)
(0.9318067506890841 -3.553728743246657e-06 0.0003328602946997135)
(0.9315330852169791 -4.131883881548225e-06 0.0002975726972749332)
(0.9313230235234347 -4.828642573513242e-06 0.0002560487914828288)
(0.9311929969300113 -5.635509107994466e-06 0.0002028795585767575)
(0.931151204006285 -6.205781083883798e-06 0.0001644992245789041)
(0.9311757308138942 -6.899814238578255e-06 0.0001141241197932192)
(0.9312878494360193 -7.642955385341195e-06 6.037988434988035e-05)
(0.9314715742766474 -8.421981735916649e-06 -1.272052176869485e-05)
(0.9317759571909097 -9.219891419030091e-06 -8.906094366140885e-05)
(0.9320361162958662 -9.849190295055731e-06 -0.0001985755330047936)
(0.9325849775733031 -1.087295595039668e-05 -0.0002309541881235543)
(0.9994036593717515 6.658291133948025e-13 0.0002450720932477035)
(0.9988031787426098 1.702586260733886e-12 0.0005822440099584947)
(0.9982082136400765 2.788808111544483e-12 0.0007577464544821639)
(0.9974070522729495 3.901484452438233e-12 0.0008449936666482004)
(0.996511179517894 4.999610082903533e-12 0.0008959320331835101)
(0.995588021628631 6.101562905701595e-12 0.0009225537246599247)
(0.994645505468116 7.153420982747033e-12 0.0009329942233650231)
(0.9936899585023287 8.358694653073697e-12 0.0009345581619711126)
(0.9927302474390348 9.38145561606443e-12 0.000931646087762714)
(0.9917709258875128 1.071868398739249e-11 0.0009259489950415195)
(0.9908136559937647 1.220203874866137e-11 0.0009182963968192543)
(0.9898598808039603 1.396077979591152e-11 0.0009095340888516383)
(0.9889109937267079 1.606880453255031e-11 0.0009002251845112728)
(0.9879675153854369 1.866600033785174e-11 0.0008907013102571642)
(0.9870298484720715 2.181692041332364e-11 0.0008811466445186654)
(0.986098238890004 2.569174957028818e-11 0.0008716669867110192)
(0.9851728171526988 3.036455394105344e-11 0.0008623229491829173)
(0.9842536531884972 3.600181651648275e-11 0.0008531463322954589)
(0.9833407742688807 4.272857269753035e-11 0.0008441516920028899)
(0.9824341792720713 5.066529930373946e-11 0.0008353434359551418)
(0.9815338484551629 6.004835736473259e-11 0.0008267199159409177)
(0.9806397502448082 7.090373344102727e-11 0.0008182760424259816)
(0.9797518449572119 8.364013104224189e-11 0.0008100049035038935)
(0.9788700882506643 9.815832016276149e-11 0.0008018987852990816)
(0.9779944323562384 1.150721402939415e-10 0.0007939497737187995)
(0.9771248280476029 1.3416786002925e-10 0.0007861501327590553)
(0.9762612246591585 1.562532004502449e-10 0.0007784924959801708)
(0.9754035714357682 1.81046551634916e-10 0.0007709699826691009)
(0.9745518169610462 2.095121394496954e-10 0.0007635762273493851)
(0.9737059102446933 2.413614098153018e-10 0.0007563053929742052)
(0.972865799908436 2.776615169500059e-10 0.0007491521470263972)
(0.9720314350874824 3.181944861718843e-10 0.0007421116286940376)
(0.9712027646479804 3.640498815419891e-10 0.0007351794219247866)
(0.9703797378524271 4.151839364525256e-10 0.0007283515024924588)
(0.9695623037232514 4.726205266942457e-10 0.0007216242073182358)
(0.9687504116445296 5.365339552507198e-10 0.000714994207671578)
(0.9679440105444982 6.079201661366675e-10 0.0007084584324303257)
(0.9671430499661222 6.870553899994825e-10 0.0007020141007171059)
(0.9663474786757356 7.750289216346884e-10 0.000695658621540198)
(0.9655572461624345 8.721851349152291e-10 0.0006893895871972076)
(0.9647723015149623 9.7948550750356e-10 0.000683204809668942)
(0.9639925937701538 1.097819487325813e-09 0.0006771021198602592)
(0.9632180728692369 1.227305717711205e-09 0.0006710795745038831)
(0.9624486879349646 1.369901708782019e-09 0.0006651352517002921)
(0.961684389132456 1.524788188281276e-09 0.0006592671867894471)
(0.9609251278589728 1.694115614362176e-09 0.0006534737307163161)
(0.9601708534210713 1.877515341307681e-09 0.0006477528125085451)
(0.9594215208576671 2.075599702339546e-09 0.0006421027352390217)
(0.9586770808812047 2.288842706438034e-09 0.0006365216818404668)