/*--------------------------------*- C++ -*----------------------------------*\
| =========                 |                                                 |
| \\      /  F ield         | OpenFOAM: The Open Source CFD Toolbox           |
|  \\    /   O peration     | Version:  v1812                                 |
|   \\  /    A nd           | Web:      www.OpenFOAM.com                      |
|    \\/     M anipulation  |                                                 |
\*---------------------------------------------------------------------------*/
FoamFile
{
    version     2.0;
    format      ascii;
    class       volScalarField;
    location    "1000";
    object      yPlus;
}
// * * * * * * * * * * * * * * * * * * * * * * * * * * * * * * * * * * * * * //

dimensions      [0 0 0 0 0 0 0];


internalField   uniform 0;

boundaryField
{
    inlet
    {
        type            calculated;
        value           uniform 0;
    }
    outlet
    {
        type            calculated;
        value           uniform 0;
    }
    wall
    {
        type            calculated;
        value           nonuniform List<scalar> 
4000
(
2957.517459827151
2957.517459826781
2957.517459826394
2957.517459826017
2957.517459825712
2957.517459825442
2957.517459825228
2957.517459825043
2957.517459824918
2957.517459824839
2957.517459824825
2957.517459824849
2957.517459824957
2957.5174598251
2957.5174598253
2957.517459825551
2957.517459825848
2957.517459826215
2957.517459826615
2957.517459826996
2969.084655694159
2969.084655693538
2969.08465569278
2969.084655692065
2969.08465569133
2969.084655690697
2969.084655690119
2969.084655689649
2969.084655689281
2969.084655689082
2969.084655689014
2969.084655689133
2969.08465568939
2969.084655689795
2969.084655690326
2969.084655690943
2969.084655691659
2969.084655692397
2969.084655693204
2969.084655693889
2980.177476178522
2980.177476177542
2980.177476176302
2980.177476175003
2980.177476173685
2980.177476172393
2980.177476171248
2980.17747617027
2980.177476169566
2980.177476169147
2980.177476169037
2980.177476169239
2980.177476169785
2980.177476170608
2980.177476171657
2980.177476172881
2980.177476174225
2980.177476175629
2980.177476176997
2980.177476178099
2990.767949730149
2990.767949728731
2990.767949726794
2990.767949724656
2990.767949722432
2990.767949720277
2990.767949718314
2990.767949716643
2990.7679497154
2990.767949714635
2990.767949714439
2990.767949714833
2990.76794971578
2990.767949717201
2990.767949719008
2990.767949721124
2990.767949723372
2990.767949725674
2990.767949727842
2990.767949729548
3000.86564098979
3000.865640987792
3000.865640984935
3000.865640981657
3000.865640978259
3000.865640974867
3000.865640971792
3000.865640969141
3000.865640967175
3000.865640965998
3000.86564096568
3000.865640966285
3000.865640967795
3000.865640970028
3000.865640972891
3000.865640976189
3000.865640979708
3000.865640983222
3000.865640986457
3000.86564098893
3010.489801487877
3010.489801485151
3010.489801481173
3010.489801476507
3010.489801471585
3010.489801466697
3010.489801462167
3010.489801458302
3010.489801455404
3010.489801453659
3010.489801453207
3010.489801454116
3010.489801456298
3010.489801459601
3010.489801463783
3010.489801468585
3010.489801473645
3010.489801478684
3010.489801483282
3010.489801486727
3019.659948846551
3019.659948842991
3019.659948837551
3019.659948831052
3019.659948824135
3019.659948817182
3019.659948810719
3019.659948805283
3019.659948801208
3019.65994879873
3019.659948798133
3019.659948799398
3019.659948802464
3019.659948807118
3019.659948813023
3019.659948819798
3019.659948826977
3019.65994883407
3019.65994884042
3019.659948845068
3028.394951912107
3028.3949519075
3028.394951900446
3028.394951892008
3028.394951882958
3028.394951873933
3028.394951865511
3028.394951858232
3028.394951852687
3028.394951849377
3028.394951848539
3028.394951850244
3028.39495185439
3028.39495186066
3028.394951868516
3028.394951877406
3028.394951886756
3028.394951895952
3028.3949519042
3028.394951910219
3036.713140268997
3036.713140263246
3036.713140253972
3036.713140242412
3036.713140229864
3036.713140217213
3036.713140205384
3036.713140195604
3036.713140188323
3036.713140183969
3036.713140182842
3036.713140185103
3036.713140190552
3036.713140198796
3036.713140209452
3036.713140221877
3036.713140234901
3036.7131402476
3036.713140258796
3036.713140266637
3044.632018599643
3044.632018592595
3044.632018581221
3044.632018567398
3044.632018552426
3044.632018537351
3044.632018523328
3044.632018511031
3044.632018501633
3044.632018495997
3044.632018494575
3044.632018497464
3044.632018504496
3044.632018515104
3044.632018528355
3044.632018543134
3044.632018558668
3044.632018573793
3044.632018587191
3044.632018596778
3052.1681285301
3052.168128521429
3052.168128506922
3052.168128488724
3052.168128468708
3052.168128448437
3052.168128429416
3052.168128413505
3052.168128401641
3052.16812839453
3052.168128392725
3052.168128396389
3052.168128405268
3052.168128418662
3052.168128435902
3052.168128455834
3052.168128476672
3052.168128496798
3052.168128514385
3052.168128526581
3059.337147179528
3059.337147169214
3059.337147151968
3059.337147130589
3059.337147107185
3059.337147083575
3059.337147061463
3059.337147042092
3059.337147027275
3059.337147018417
3059.337147016129
3059.337147020703
3059.337147031761
3059.33714704845
3059.337147069285
3059.337147092523
3059.337147116803
3059.337147140355
3059.337147160926
3059.337147175382
3066.153992193036
3066.153992180616
3066.153992159204
3066.153992132126
3066.153992102201
3066.15399207173
3066.153992043057
3066.153992018901
3066.15399200075
3066.153991989827
3066.15399198704
3066.153991992635
3066.153992006187
3066.153992026674
3066.153992052815
3066.153992082832
3066.153992114068
3066.153992144087
3066.153992170083
3066.153992187997
3072.632835944526
3072.632835930061
3072.632835905096
3072.632835873674
3072.632835839
3072.632835803772
3072.632835770731
3072.632835741835
3072.632835719751
3072.632835706491
3072.6328357031
3072.632835709918
3072.632835726361
3072.632835751223
3072.632835782264
3072.632835816927
3072.632835853038
3072.632835887802
3072.63283591787
3072.632835938734
3078.787171737739
3078.787171720582
3078.787171690307
3078.787171651626
3078.787171608615
3078.787171564636
3078.787171523179
3078.787171488012
3078.787171461458
3078.787171445455
3078.78717144136
3078.787171449536
3078.78717146933
3078.787171499212
3078.787171537212
3078.787171580567
3078.787171625562
3078.78717166857
3078.787171705526
3078.78717173078
3084.629864865604
3084.629864845909
3084.629864811005
3084.629864766601
3084.62986471716
3084.629864666726
3084.629864619244
3084.629864577795
3084.629864546162
3084.629864527139
3084.629864522254
3084.629864531994
3084.629864555554
3084.62986459117
3084.629864635622
3084.629864685337
3084.629864736938
3084.629864786316
3084.629864828686
3084.629864857717
3090.173197099697
3090.173197076711
3090.173197035118
3090.173196981626
3090.173196921649
3090.173196860193
3090.17319680214
3090.173196752522
3090.173196715006
3090.173196692396
3090.173196686571
3090.173196698091
3090.173196726053
3090.173196768264
3090.173196821678
3090.173196882337
3090.173196945089
3090.173197004839
3090.173197055818
3090.17319709037
3095.428908423971
3095.42890839784
3095.428908350374
3095.428908289349
3095.428908220975
3095.428908150919
3095.428908084736
3095.42890802712
3095.428907983173
3095.428907956693
3095.428907949868
3095.428907963377
3095.428907996103
3095.428908045512
3095.428908107337
3095.428908176465
3095.428908248
3095.428908316128
3095.428908374132
3095.428908413468
3100.408233496411
3100.408233466267
3100.408233410548
3100.408233338236
3100.408233256806
3100.408233173066
3100.408233093738
3100.408233025679
3100.408232974066
3100.408232942908
3100.408232934877
3100.408232950697
3100.408232989146
3100.408233047087
3100.408233120278
3100.408233203007
3100.408233288391
3100.408233369355
3100.40823343798
3100.408233484163
3105.121934473174
3105.121934439214
3105.121934376057
3105.121934294115
3105.121934201757
3105.121934106744
3105.12193401679
3105.121933938572
3105.121933878912
3105.121933842926
3105.121933833644
3105.121933851959
3105.121933896378
3105.12193396336
3105.121934047194
3105.121934141064
3105.121934237865
3105.121934329617
3105.121934407266
3105.121934459444
3109.580329992383
3109.580329953518
3109.580329880279
3109.580329784565
3109.580329676153
3109.580329564336
3109.580329458225
3109.580329366843
3109.580329297366
3109.58032925542
3109.580329244601
3109.580329265849
3109.580329317525
3109.580329395413
3109.580329493473
3109.580329604052
3109.580329717835
3109.580329825347
3109.580329915946
3109.580329976503
3113.793321528791
3113.793321485224
3113.793321402795
3113.793321294807
3113.793321172427
3113.793321046131
3113.793320926246
3113.793320822127
3113.793320742699
3113.793320694736
3113.793320682339
3113.79332070665
3113.793320765764
3113.793320854855
3113.793320966426
3113.793321091301
3113.793321219769
3113.793321341036
3113.793321443044
3113.793321511081
3117.770416757711
3117.770416708327
3117.770416613599
3117.770416488932
3117.770416347026
3117.770416200262
3117.770416060708
3117.770415940195
3117.770415848404
3117.770415792993
3117.770415778622
3117.770415806646
3117.770415874851
3117.770415977615
3117.770416106802
3117.770416252003
3117.770416401149
3117.770416541588
3117.770416659242
3117.770416737448
3121.52075103617
3121.520750981105
3121.520750874984
3121.520750734914
3121.520750575351
3121.52075041017
3121.520750253043
3121.520750116626
3121.52075001251
3121.520749949624
3121.520749933346
3121.520749965152
3121.520750042548
3121.520750159179
3121.520750305209
3121.520750468667
3121.520750636415
3121.520750794193
3121.520750926156
3121.520751013646
3125.053106590741
3125.053106528712
3125.05310640785
3125.053106247669
3125.053106064531
3125.05310587461
3125.053105693695
3125.053105537083
3125.053105417668
3125.053105345513
3125.05310532678
3125.053105363183
3125.053105451807
3125.053105585367
3125.053105752991
3125.053105941053
3125.053106133749
3125.053106314626
3125.053106465479
3125.053106565104
3128.375930353588
3128.375930284704
3128.375930149714
3128.375929970403
3128.375929765083
3128.375929552038
3128.375929348992
3128.375929172637
3128.375929037954
3128.375928956563
3128.375928935441
3128.375928976538
3128.375929076514
3128.375929227132
3128.375929415762
3128.375929626772
3128.375929842847
3128.375930045424
3128.375930214038
3128.375930325164
3131.497350017552
3131.497349940428
3131.497349787915
3131.497349584408
3131.497349350841
3131.497349108036
3131.497348876293
3131.497348675382
3131.497348522032
3131.49734842929
3131.497348405153
3131.497348451828
3131.497348565549
3131.497348736886
3131.497348951736
3131.497349192295
3131.497349438382
3131.497349668682
3131.497349859846
3131.497349985464
3134.425189118165
3134.425189032745
3134.42518886289
3134.425188635789
3134.425188374682
3134.425188103031
3134.425187843638
3134.425187618291
3134.425187446128
3134.425187341978
3134.425187314859
3134.425187367304
3134.425187494991
3134.425187687366
3134.425187928162
3134.425188197406
3134.42518847255
3134.425188729738
3134.425188942865
3134.425189082613
3137.166980704193
3137.16698060908
3137.166980418381
3137.166980162393
3137.166979867467
3137.166979560143
3137.166979266405
3137.166979011359
3137.166978816495
3137.166978698576
3137.1669786678
3137.166978727045
3137.166978871404
3137.166979088908
3137.166979361334
3137.166979665985
3137.166979977026
3137.166980267347
3137.166980507324
3137.166980664298
3139.729980306057
3139.729980200957
3139.729979989097
3139.729979704149
3139.729979375318
3139.729979032369
3139.729978704367
3139.729978419226
3139.729978201276
3139.729978069298
3139.729978034843
3139.72997810111
3139.729978262656
3139.729978505865
3139.729978810322
3139.729979150394
3139.729979497316
3139.729979820752
3139.729980087683
3139.729980261903
3142.121177765937
3142.121177649373
3142.121177412802
3142.121177093489
3142.121176724235
3142.121176338652
3142.121175969601
3142.121175648756
3142.12117540347
3142.121175254912
3142.121175216049
3142.121175290478
3142.121175472073
3142.121175745589
3142.121176087944
3142.121176470395
3142.121176860233
3142.121177223092
3142.121177521995
3142.121177716663
3144.347308546445
3144.347308417909
3144.347308155737
3144.347307801066
3144.347307390342
3144.34730696108
3144.347306549938
3144.347306192246
3144.347305918663
3144.347305752904
3144.347305709518
3144.347305792525
3144.347305995053
3144.347306300052
3144.3473066816
3144.347307107461
3144.347307541241
3144.347307944618
3144.347308276373
3144.347308491975
3146.414864119408
3146.414863977379
3146.41486368584
3146.414863290311
3146.414862831462
3146.414862351307
3146.41486189113
3146.414861490697
3146.414861184312
3146.414860998618
3146.414860949942
3146.414861042733
3146.414861269348
3146.414861610648
3146.4148620376
3146.414862514026
3146.414862998925
3146.414863449284
3146.41486381902
3146.414864058821
3148.330101945144
3148.330101788896
3148.33010146649
3148.330101028084
3148.330100518825
3148.330099985481
3148.330099474048
3148.330099028707
3148.330098687874
3148.330098481239
3148.330098427016
3148.330098530229
3148.33009878228
3148.330099161788
3148.330099636424
3148.330100165781
3148.330100704153
3148.330101203653
3148.33010161316
3148.330101878302
3150.099054700773
3150.099054528581
3150.0990541714
3150.09905368446
3150.099053117886
3150.099052523884
3150.099051953927
3150.099051457463
3150.099051077398
3150.09905084695
3150.099050786348
3150.099050901263
3150.099051182142
3150.099051605075
3150.099052133929
3150.099052723567
3150.099053322849
3150.099053878272
3150.09905433287
3150.09905462667
3151.727539187309
3151.727538998156
3151.727538603958
3151.727538065345
3151.727537437875
3151.727536779523
3151.727536147429
3151.727535596649
3151.72753517484
3151.727534918981
3151.72753485164
3151.727534979099
3151.727535290704
3151.727535759906
3151.727536346436
3151.727537000111
3151.727537664054
3151.727538278833
3151.727538781326
3151.727539105621
3153.221164589791
3153.221164381901
3153.221163946492
3153.22116335024
3153.221162654601
3153.221161924009
3153.221161222162
3153.221160610403
3153.221160141736
3153.221159857397
3153.221159782424
3153.221159923864
3153.221160269874
3153.22116079087
3153.221161442077
3153.221162167576
3153.221162904047
3153.221163585274
3153.221164141291
3153.221164499557
3154.585340502825
3154.585340274784
3154.585339795089
3154.585339136903
3154.585338368071
3154.585337559991
3154.585336783322
3154.585336106078
3154.5853355871
3154.585335272153
3154.585335189012
3154.585335345522
3154.585335728493
3154.58533630518
3154.585337025836
3154.58533782842
3154.585338642659
3154.585339395173
3154.585340008685
3154.585340403391
3155.825284382639
3155.825284132482
3155.825283604047
3155.825282877424
3155.825282027531
3155.825281133529
3155.825280273827
3155.82527952388
3155.825278949083
3155.825278600159
3155.825278507891
3155.825278681049
3155.825279104998
3155.825279743419
3155.825280541082
3155.825281429118
3155.825282329616
3155.825283161065
3155.825283838056
3155.82528427303
3156.946028799496
3156.946028525471
3156.946027944334
3156.946027143749
3156.946026206286
3156.94602521946
3156.946024270054
3156.946023441611
3156.946022806442
3156.946022420759
3156.946022318649
3156.946022509836
3156.946022978075
3156.946023683173
3156.946024564051
3156.946025544459
3156.94602653809
3156.946027454823
3156.946028200448
3156.946028678885
3157.952428230612
3157.952427930546
3157.952427291722
3157.952426409937
3157.952425376229
3157.952424287286
3157.95242323908
3157.952422324096
3157.952421622413
3157.952421196194
3157.952421083218
3157.952421294183
3157.952421811201
3157.952422589769
3157.952423562275
3157.952424644335
3157.952425740444
3157.952426750875
3157.952427571818
3157.952428097915
3158.849165616349
3158.849165288098
3158.849164586776
3158.849163616956
3158.849162478904
3158.849161279195
3158.849160123959
3158.849159115229
3158.849158341544
3158.84915787145
3158.849157746651
3158.849157979042
3158.849158548864
3158.849159406979
3158.849160478739
3158.849161670938
3158.849162878093
3158.849163990156
3158.849164892753
3158.849165470531
3159.640758566663
3159.640758207711
3159.640757438193
3159.640756372213
3159.640755119986
3159.640753798999
3159.640752526289
3159.640751414607
3159.640750561722
3159.640750043298
3159.640749905528
3159.640750161434
3159.640750789235
3159.640751734726
3159.640752915442
3159.640754228447
3159.640755557252
3159.640756780471
3159.640757772278
3159.640758406448
3160.331565349789
3160.331564957626
3160.331564114079
3160.331562943637
3160.331561567386
3160.331560114672
3160.331558714748
3160.331557491633
3160.331556553049
3160.331555982417
3160.331555830554
3160.331556111884
3160.331556802423
3160.331557842397
3160.331559141061
3160.33156058495
3160.331562045782
3160.331563389704
3160.331564478479
3160.331565173903
3160.92579049909
3160.925790070832
3160.925789146827
3160.925787862642
3160.92578635121
3160.925784754706
3160.925783215283
3160.925781869779
3160.925780837017
3160.925780208921
3160.925780041493
3160.925780350712
3160.925781110069
3160.925782253856
3160.925783681948
3160.925785269231
3160.925786874232
3160.925788349755
3160.925789544053
3160.925790306133
3161.427490337639
3161.427489870215
3161.427488858753
3161.427487450801
3161.427485792273
3161.42748403946
3161.427482349152
3161.42748087153
3161.427479737127
3161.427479046984
3161.427478862819
3161.427479202106
3161.427480035816
3161.427481291566
3161.427482859399
3161.427484601799
3161.427486363487
3161.427487982182
3161.427489291366
3161.427490126071
3161.84057807279
3161.840577562981
3161.840576456739
3161.840574914539
3161.840573096255
3161.840571173296
3161.840569317479
3161.840567694552
3161.840566448262
3161.840565689812
3161.840565487117
3161.840565859351
3161.840566774722
3161.840568153556
3161.840569874943
3161.840571787421
3161.840573719639
3161.840575493852
3161.84057692764
3161.840577840945
3162.168828740009
3162.168828184148
3162.168826974678
3162.168825286046
3162.168823293491
3162.168821185275
3162.168819151083
3162.168817371797
3162.168816005163
3162.16881517326
3162.168814950605
3162.168815358372
3162.16881636156
3162.168817872819
3162.168819759403
3162.168821855206
3162.168823973137
3162.168825916959
3162.168827486786
3162.168828485948
3162.415884066017
3162.415883460419
3162.415882139427
3162.415880292507
3162.415878111418
3162.415875802124
3162.415873571528
3162.415871619793
3162.415870120305
3162.415869207183
3162.415868962382
3162.415869409115
3162.415870509067
3162.415872166273
3162.415874234937
3162.415876532423
3162.415878851844
3162.415880979187
3162.415882696052
3162.415883787936
3162.585256652303
3162.585255992623
3162.585254550072
3162.58525253017
3162.585250142945
3162.585247614332
3162.585245173193
3162.585243036744
3162.585241395056
3162.585240394997
3162.585240126542
3162.585240615077
3162.585241818679
3162.585243632195
3162.585245895882
3162.585248409636
3162.585250948775
3162.585253276852
3162.58525515449
3162.585256347816
3162.680334675481
3162.680333957528
3162.680332383789
3162.680330177198
3162.680327567436
3162.68032480124
3162.680322127072
3162.68031978591
3162.680317986434
3162.680316889868
3162.680316594881
3162.680317129486
3162.680318447681
3162.68032043417
3162.680322913711
3162.680325666633
3162.680328443872
3162.68033098864
3162.680333039793
3162.680334342468
3162.704385599267
3162.704384817899
3162.704383100996
3162.704380690328
3162.704377836967
3162.704374811288
3162.7043718886
3162.704369329168
3162.704367361471
3162.704366161993
3162.704365838812
3162.704366422649
3162.704367863175
3162.704370034208
3162.704372744
3162.704375752055
3162.704378789209
3162.704381571204
3162.704383812294
3162.704385234799
3162.660560247273
3162.660559397655
3162.660557526496
3162.660554895574
3162.660551779273
3162.660548472636
3162.660545273525
3162.660542471253
3162.66054031631
3162.660539002094
3162.660538647213
3162.660539285364
3162.660540861565
3162.660543237413
3162.660546202918
3162.660549494487
3162.660552813119
3162.660555851244
3162.660558297332
3162.66055984887
3162.551896618345
3162.551895694335
3162.551893654495
3162.551890782535
3162.551887378206
3162.551883764236
3162.551880270773
3162.551877209673
3162.551874854999
3162.551873418447
3162.55187302981
3162.551873725984
3162.551875446941
3162.5518780414
3162.551881279529
3162.551884873041
3162.55188849951
3162.551891818291
3162.551894488975
3162.55189618233
3162.381323198905
3162.381322195025
3162.381319973644
3162.381316841431
3162.381313125766
3162.381309178775
3162.381305357591
3162.381302008335
3162.381299431299
3162.381297858236
3162.381297431605
3162.38129819187
3162.381300073331
3162.381302910359
3162.381306451467
3162.381310380882
3162.381314340949
3162.381317963159
3162.381320876497
3162.381322722404
3162.15166249909
3162.151661407924
3162.151658987258
3162.151655569932
3162.151651512977
3162.151647201183
3162.151643029605
3162.151639371804
3162.151636556477
3162.151634837179
3162.151634369798
3162.151635198656
3162.151637252121
3162.151640349076
3162.151644214521
3162.151648503043
3162.151652828374
3162.151656783433
3162.151659963051
3162.151661977374
3161.865634834281
3161.865633649417
3161.865631014511
3161.865627288151
3161.865622860506
3161.865618151704
3161.865613589938
3161.865609588744
3161.865606507998
3161.86560462551
3161.865604112207
3161.865605016783
3161.865607260935
3161.865610646431
3161.865614872229
3161.865619560232
3161.865624283262
3161.86562859989
3161.865632068392
3161.865634263881
3161.525860320743
3161.525859033455
3161.525856162428
3161.525852097686
3161.525847264331
3161.525842121053
3161.525837139916
3161.525832769101
3161.525829402482
3161.525827344119
3161.525826781183
3161.52582776714
3161.525830216493
3161.525833912443
3161.525838525903
3161.52584364317
3161.525848801247
3161.525853513876
3161.525857299141
3161.525859695646
3161.134864145931
3161.134862748348
3161.134859622533
3161.134855187811
3161.134849909092
3161.13484428785
3161.134838838
3161.134834053795
3161.134830367191
3161.134828111536
3161.134827492291
3161.134828568308
3161.134831246105
3161.134835288275
3161.134840334209
3161.134845930785
3161.134851567494
3161.134856715188
3161.134860847648
3161.134863461479
3160.69507775229
3160.695076233962
3160.695072826722
3160.695067987556
3160.695062222786
3160.695056079823
3160.695050123644
3160.695044892598
3160.695040859881
3160.695038390642
3160.695037710237
3160.695038883273
3160.695041807766
3160.695046223856
3160.695051736965
3160.695057851016
3160.695064010133
3160.69506963292
3160.695074145332
3160.695077000941
3160.208843705066
3160.208842056155
3160.208838342914
3160.208833056384
3160.208826751103
3160.208820026567
3160.20881350064
3160.2088077661
3160.208803342739
3160.208800631785
3160.208799881144
3160.208801162137
3160.208804363154
3160.20880919914
3160.208815237182
3160.20882193283
3160.208828674231
3160.208834826044
3160.208839760376
3160.208842880052
3159.678419640608
3159.678417848249
3159.678413795551
3159.678408018286
3159.678401120828
3159.678393758763
3159.678386611193
3159.678380326995
3159.678375476875
3159.678372501571
3159.678371673632
3159.678373071831
3159.67837657404
3159.678381867765
3159.678388478117
3159.678395807858
3159.67840318761
3159.678409919422
3159.678415317223
3159.67841873221
3159.10598057827
3159.105978629839
3159.105974204861
3159.105967880399
3159.105960319209
3159.105952241009
3159.10594439134
3159.105937485333
3159.105932151595
3159.105928875784
3159.105927958729
3159.105929487664
3159.105933328831
3159.105939138483
3159.105946394324
3159.105954439178
3159.105962535993
3159.105969918906
3159.105975835803
3159.105979576724
3158.493626340029
3158.493624219058
3158.493619377244
3158.493612444349
3158.493604145053
3158.493595269337
3158.493586638742
3158.493579040365
3158.493573167469
3158.493569555992
3158.493568538276
3158.493570211298
3158.493574428265
3158.493580810816
3158.493588783734
3158.493597623239
3158.493606518557
3158.493614626439
3158.493621122109
3158.493625231624
3157.843385625876
3157.843383315503
3157.84337801189
3157.84337039677
3157.843361266201
3157.843351490571
3157.843341976063
3157.843333592898
3157.84332710788
3157.84332311426
3157.843321980509
3157.843323814758
3157.843328455554
3157.843335485314
3157.843344268797
3157.843354006529
3157.843363802913
3157.84337272848
3157.843379875892
3157.843384396732
3157.157221301788
3157.157218780454
3157.157212954241
3157.157204568085
3157.157194496488
3157.15718370009
3157.157173182152
3157.15716390685
3157.157156724847
3157.15715229489
3157.157151026816
3157.157153041673
3157.157158161594
3157.157165924308
3157.157175626412
3157.157186382327
3157.157197200764
3157.157207053602
3157.15721494056
3157.157219932245
3156.437044218902
3156.437041462549
3156.437035047585
3156.437025785625
3156.437014641192
3156.43700267879
3156.436991012244
3156.436980714207
3156.436972731917
3156.436967799689
3156.436966375036
3156.436968594257
3156.436974260586
3156.436982860793
3156.436993613013
3156.437005532852
3156.437017518836
3156.437028430415
3156.437037160936
3156.437042687629
3155.684715413692
3155.684712393337
3155.684705307553
3155.684695046199
3155.684682674932
3155.684669376712
3155.684656392617
3155.684644919903
3155.68463601702
3155.684630505532
3155.684628898238
3155.684631349017
3155.684637639825
3155.684647198763
3155.684659153761
3155.684672407017
3155.684685730525
3155.684697854654
3155.684707551418
3155.684713693805
3154.902060994369
3154.902057674823
3154.902049816947
3154.90203839771
3154.902024599778
3154.902009744736
3154.901995222227
3154.901982375759
3154.901972394463
3154.901966202531
3154.901964377834
3154.901967095411
3154.901974112368
3154.901984788256
3154.901998145504
3154.902012953306
3154.902027835549
3154.902041372028
3154.902052193362
3154.902059051856
3154.090890697558
3154.090887037936
3154.090878294163
3154.090865543876
3154.090850103159
3154.090833453208
3154.090817155135
3154.090802721882
3154.090791493678
3154.090784513779
3154.090782435643
3154.090785458969
3154.090793312217
3154.09080527578
3154.09082024999
3154.090836850339
3154.090853529505
3154.090868693595
3154.090880810732
3154.09088849592
3153.253008712834
3153.253004660688
3153.252994879424
3153.252980562824
3153.252963183181
3153.252944410721
3153.252926009881
3153.252909695023
3153.252896986267
3153.252889068806
3153.252886686109
3153.25289006765
3153.252898908152
3153.252912394075
3153.252929280784
3153.252948001378
3153.252966805107
3153.252983892565
3153.25299753986
3153.253006201539
3152.390246520355
3152.390242012656
3152.390231016208
3152.390214860089
3152.390195199072
3152.390173926134
3152.390153045634
3152.390134510171
3152.390120052748
3152.390111026591
3152.390108282057
3152.390112083802
3152.390122086837
3152.390137366752
3152.390156507299
3152.390177726038
3152.39019903194
3152.390218383375
3152.390233830831
3152.390243642041
3151.504480684471
3151.504475645508
3151.504463228504
3151.50444491985
3151.504422587135
3151.50439838464
3151.504374598205
3151.504353460081
3151.504336953049
3151.504326627458
3151.504323459039
3151.504327753955
3151.50433912032
3151.504356503388
3151.504378285651
3151.504402431497
3151.504426667905
3151.50444866928
3151.504466222135
3151.504477377076
3150.597661433709
3150.597655763952
3150.59764164698
3150.597620756058
3150.597595213007
3150.597567486768
3150.597540202214
3150.59751592921
3150.597496952229
3150.597485059967
3150.597481379313
3150.597486266623
3150.597499273555
3150.597519188049
3150.597544149369
3150.597571816425
3150.597599576141
3150.597624761336
3150.597644841582
3150.597657609232
3149.671852128714
3149.671845716363
3149.671829611357
3149.671805705068
3149.671776416033
3149.671744580549
3149.671713219313
3149.671685296031
3149.671663445894
3149.671649734611
3149.671645464757
3149.671651050363
3149.671665976367
3149.671688846857
3149.671717517398
3149.671749290552
3149.671781156215
3149.67181004875
3149.671833068936
3149.671847709053
3148.729247203803
3148.729239906309
3148.729221454792
3148.72919399797
3148.729160304222
3148.729123641832
3148.729087496188
3148.729055292556
3148.729030077846
3148.729014241947
3148.729009292515
3148.729015710139
3148.72903290044
3148.72905925069
3148.729092282203
3148.729128878575
3148.72916556377
3148.729198804461
3148.729225268726
3148.729242097146
3147.772212427275
3147.772204067405
3147.77218282184
3147.77215114515
3147.772112221975
3147.772069833994
3147.772028018604
3147.771990748271
3147.771961556355
3147.771943215423
3147.771937474439
3147.771944891523
3147.771964777103
3147.771995260638
3147.772033467269
3147.772075783723
3147.772118180949
3147.772156570696
3147.772187108546
3147.77220651908
3146.803286841342
3146.80327723429
3146.803252814087
3146.80321638627
3146.803171607915
3146.803122834092
3146.803074716408
3146.80303183244
3146.802998252007
3146.802977167793
3146.802970591969
3146.802979164565
3146.80300208655
3146.803037198725
3146.803081184931
3146.803129879356
3146.803178638683
3146.803222757258
3146.803257819537
3146.803280081665
3145.825198547916
3145.82518744089
3145.825159313489
3145.82511738519
3145.825065864824
3145.82500976609
3145.824954443077
3145.824905161413
3145.824866599603
3145.824842424173
3145.82483494264
3145.824844883692
3145.8248713197
3145.82491175938
3145.824962381492
3145.825018389045
3145.825074437693
3145.825125114848
3145.825165350061
3145.825190855844
3144.840846804507
3144.84083391908
3144.840801559151
3144.840753424655
3144.840694353553
3144.840630094923
3144.840566782769
3144.840510439979
3144.840466410945
3144.840438877795
3144.840430466423
3144.840441996374
3144.840472391949
3144.840518791013
3144.840576812942
3144.840640962156
3144.840705118266
3144.840763083814
3144.840809059129
3144.840838140041
3143.853177202426
3143.853162254054
3143.853125358539
3143.853070752748
3143.853003945963
3143.852931432422
3143.852860125762
3143.852796791565
3143.852747420961
3143.852716689215
3143.85270752051
3143.852720808165
3143.852755315749