# y+ ()                 
# Time                  	patch                   	min                     	max                     	average                 
1000                    	wall	2.9575174598248254e+03	3.1946001202840584e+03	3.1276439262219797e+03
