/*--------------------------------*- C++ -*----------------------------------*\
| =========                 |                                                 |
| \\      /  F ield         | OpenFOAM: The Open Source CFD Toolbox           |
|  \\    /   O peration     | Version:  v1812                                 |
|   \\  /    A nd           | Web:      www.OpenFOAM.com                      |
|    \\/     M anipulation  |                                                 |
\*---------------------------------------------------------------------------*/
FoamFile
{
    version     2.0;
    format      ascii;
    class       volVectorField;
    location    "0";
    object      U;
}
// * * * * * * * * * * * * * * * * * * * * * * * * * * * * * * * * * * * * * //

dimensions      [0 1 -1 0 0 0 0];


internalField   nonuniform List<vector> 
40000
(
(0.01000000593706589 2.40279865449331e-11 5.030930186278721e-12)
(0.01000000491378066 6.092769413988507e-11 1.123194315331905e-11)
(0.01000000343517639 8.170166036770719e-11 1.445761912965627e-11)
(0.01000000187477844 8.568133182118754e-11 1.57126037875111e-11)
(0.01000000052453656 7.618029471134484e-11 1.576104698142177e-11)
(0.00999999953018613 5.895756764740378e-11 1.529778803633088e-11)
(0.009999998898384009 3.989114039092062e-11 1.47170903935785e-11)
(0.009999998545755969 2.329299843285125e-11 1.419003699266292e-11)
(0.009999998359732377 1.113627315364119e-11 1.361623383489735e-11)
(0.009999998246148842 3.418359345585822e-12 1.285911377380759e-11)
(0.00999999815172509 -1.093374002451895e-12 1.174548687477419e-11)
(0.009999998062972408 -3.866569564516865e-12 1.024768325752947e-11)
(0.009999997991237951 -6.059346774325428e-12 8.364163875400392e-12)
(0.009999997954965296 -8.177703826601697e-12 6.225380454194581e-12)
(0.009999997966760774 -1.023313326437462e-11 3.905555913401661e-12)
(0.009999998028009566 -1.189497614990413e-11 1.549540704091012e-12)
(0.009999998129818223 -1.282398562342023e-11 -8.161001388604684e-13)
(0.009999998257377308 -1.277062223331518e-11 -3.099777379222944e-12)
(0.00999999839481301 -1.170981766412603e-11 -5.333798680499757e-12)
(0.009999998528770449 -9.756539152978462e-12 -7.458573689222971e-12)
(0.009999998650096443 -7.155625918187024e-12 -9.529465411214624e-12)
(0.009999998753947095 -4.157155349132703e-12 -1.149130755828412e-11)
(0.009999998838933974 -1.00819907977979e-12 -1.340136716876623e-11)
(0.009999998905973426 2.117641478840698e-12 -1.520311810470468e-11)
(0.009999998957242722 5.087900586953032e-12 -1.695340916263443e-11)
(0.00999999899544228 7.837111515309729e-12 -1.859892448385914e-11)
(0.009999999023367382 1.032112607186161e-11 -2.019664973456551e-11)
(0.009999999043708062 1.253361459758041e-11 -2.169974321758231e-11)
(0.009999999058987137 1.446735526516881e-11 -2.316369752258818e-11)
(0.009999999071542438 1.613696103825093e-11 -2.454807190854774e-11)
(0.009999999083528433 1.754758421901422e-11 -2.590390029213617e-11)
(0.009999999096892007 1.872355352358624e-11 -2.719662628783309e-11)
(0.009999999113353327 1.967728306684254e-11 -2.847016242549244e-11)
(0.009999999134363124 2.044169980855328e-11 -2.969489888357538e-11)
(0.009999999161080778 2.103549565438044e-11 -3.090612670300479e-11)
(0.009999999194338145 2.14991430907993e-11 -3.207858241191537e-11)
(0.009999999234631393 2.185520592626499e-11 -3.323785448261569e-11)
(0.009999999282099964 2.21483424482629e-11 -3.436240007814739e-11)
(0.009999999336531999 2.240194791822157e-11 -3.546757072064858e-11)
(0.009999999397356393 2.266095323541417e-11 -3.653523907021167e-11)
(0.009999999463660118 2.294633125003725e-11 -3.757054901562518e-11)
(0.00999999953419607 2.329907061553245e-11 -3.855861988207097e-11)
(0.009999999607416142 2.373442115587218e-11 -3.949496940429471e-11)
(0.00999999968150196 2.428479535521134e-11 -4.036826740938539e-11)
(0.009999999754420584 2.495615489435375e-11 -4.116537839771174e-11)
(0.009999999823983172 2.576744427638245e-11 -4.18791439244295e-11)
(0.009999999887925817 2.671209059067917e-11 -4.248892646139424e-11)
(0.009999999943994172 2.779112382930711e-11 -4.299272533033594e-11)
(0.009999999990043194 2.898339530616599e-11 -4.336356171060262e-11)
(0.01000000002413745 3.026953628883487e-11 -4.360561763831333e-11)
(0.01000000004465548 3.16139444890519e-11 -4.368676847685801e-11)
(0.01000000005038789 3.29771095088255e-11 -4.361826109718419e-11)
(0.01000000004062634 3.431225282200787e-11 -4.336388826145495e-11)
(0.01000000001523705 3.55635959266646e-11 -4.294260788975661e-11)
(0.009999999974711876 3.667974385595393e-11 -4.231508806545893e-11)
(0.009999999920195721 3.759579440300303e-11 -4.150816491736701e-11)
(0.009999999853482407 3.826459509491462e-11 -4.048033054593384e-11)
(0.009999999776985928 3.862068542574689e-11 -3.926611110913157e-11)
(0.009999999693681958 3.862956504153975e-11 -3.782292907691998e-11)
(0.009999999607035761 3.82323622847427e-11 -3.619264705642703e-11)
(0.00999999952091311 3.741282457447886e-11 -3.433314804332545e-11)
(0.009999999439491846 3.612403371225303e-11 -3.229326554429727e-11)
(0.009999999367160702 3.437323151805821e-11 -3.003314827734738e-11)
(0.009999999308406634 3.21342448310349e-11 -2.760779859931127e-11)
(0.009999999267654434 2.944984776875817e-11 -2.49805921608022e-11)
(0.009999999249039769 2.633336231364146e-11 -2.221033608765483e-11)
(0.009999999256080944 2.288272678979611e-11 -1.926268389587657e-11)
(0.009999999291270959 1.916818483452264e-11 -1.61969396228478e-11)
(0.009999999355657476 1.534123357862943e-11 -1.298055629997419e-11)
(0.009999999448571023 1.150167175043067e-11 -9.675190943556908e-12)
(0.009999999567697962 7.790622487400482e-12 -6.258295791319091e-12)
(0.009999999709628353 4.254865730578483e-12 -2.807021108608351e-12)
(0.009999999870780393 9.565053610267234e-13 6.781901429329361e-13)
(0.01000000004821845 -2.103135374186879e-12 4.100040099098024e-12)
(0.01000000023962036 -4.823203988980356e-12 7.453109310273311e-12)
(0.01000000044173167 -7.037924409924358e-12 1.065905280706209e-11)
(0.01000000064752122 -8.432491857560592e-12 1.375800619263561e-11)
(0.01000000084351101 -8.719306700269707e-12 1.6711436921779e-11)
(0.01000000100990987 -7.776614074919194e-12 1.956716091239495e-11)
(0.01000000112567519 -5.897215181465682e-12 2.221328641860679e-11)
(0.0100000011781581 -3.794578540277841e-12 2.457151079825775e-11)
(0.0100000011729216 -2.399359010075376e-12 2.639754786288064e-11)
(0.01000000113675695 -2.382924586818994e-12 2.759628463244743e-11)
(0.01000000110834472 -3.705845873222809e-12 2.807521853886222e-11)
(0.01000000111803351 -5.521952686783548e-12 2.804427540885977e-11)
(0.01000000116703856 -6.592428339346246e-12 2.770060604506454e-11)
(0.01000000122106488 -6.150375868321739e-12 2.733740143980019e-11)
(0.01000000122804975 -4.598232038191424e-12 2.690933465637991e-11)
(0.01000000115498573 -3.613471327707421e-12 2.623502647764433e-11)
(0.0100000010229571 -5.290558616195428e-12 2.486468114737626e-11)
(0.01000000091455141 -1.08137891002835e-11 2.257803423389299e-11)
(0.01000000094058115 -1.937404230101265e-11 1.941558892826202e-11)
(0.01000000117904574 -2.825049534584166e-11 1.590745660195497e-11)
(0.01000000162195204 -3.405700201020231e-11 1.268642517428327e-11)
(0.0100000021661325 -3.456037435399949e-11 1.02743747537403e-11)
(0.01000000265975717 -2.987358520277639e-11 8.696300971024715e-12)
(0.01000000298135942 -2.229072065819361e-11 7.506322993746668e-12)
(0.01000000310377829 -1.462363424800617e-11 5.985578699379996e-12)
(0.01000000309771348 -8.328668657533469e-12 3.790980029921693e-12)
(0.01000000306457289 -2.794718623202859e-12 1.259228138441874e-12)
(0.01000000590036525 -1.055434593893416e-11 4.351893151424427e-12)
(0.01000000488576604 -3.306066462264149e-11 9.713932089288881e-12)
(0.01000000342615752 -4.479108264845587e-11 1.258780198128916e-11)
(0.01000000188300966 -4.342693739334444e-11 1.378753569644779e-11)
(0.01000000054172603 -3.385113370168745e-11 1.397128732149661e-11)
(0.00999999954752712 -2.283082577159303e-11 1.370761247565306e-11)
(0.009999998910109961 -1.545096411926081e-11 1.332627584671465e-11)
(0.009999998550229041 -1.361207258021025e-11 1.295443682881108e-11)
(0.009999998358590756 -1.633597875027421e-11 1.251234151013298e-11)
(0.009999998242516114 -2.111705116323934e-11 1.187929858648903e-11)
(0.009999998148498853 -2.541079326123807e-11 1.092125521962021e-11)
(0.009999998061831827 -2.762566755214688e-11 9.612015523801106e-12)
(0.009999997992492458 -2.738308555601239e-11 7.96255318625584e-12)
(0.009999997957972155 -2.521591928316779e-11 6.077062637823493e-12)
(0.009999997970532108 -2.204404297988735e-11 4.031430744802195e-12)
(0.009999998031693708 -1.869635141149146e-11 1.939680013838143e-12)
(0.009999998132937928 -1.567892950887741e-11 -1.594660167678759e-13)
(0.009999998259831826 -1.312140448378852e-11 -2.198987172906344e-12)
(0.009999998396755173 -1.091722250795242e-11 -4.188048345619251e-12)
(0.009999998530448249 -8.835771177214511e-12 -6.08957381048264e-12)
(0.009999998651737601 -6.684996479982801e-12 -7.93185014197039e-12)
(0.009999998755698646 -4.325576875849342e-12 -9.684420106120942e-12)
(0.009999998840856762 -1.732295383524907e-12 -1.137755306634684e-11)
(0.009999998908062857 1.082857241376999e-12 -1.298143502414849e-11)
(0.009999998959459286 4.044767992761347e-12 -1.452637975185346e-11)
(0.009999998997736546 7.100136971414138e-12 -1.598562966026009e-11)
(0.009999999025693871 1.017456570384443e-11 -1.739071074646998e-11)
(0.009999999046031745 1.323583274231548e-11 -1.871959670607143e-11)
(0.009999999061281482 1.623655689064562e-11 -2.000400661089873e-11)
(0.009999999073788351 1.916392339956963e-11 -2.12260764520521e-11)
(0.009999999085708819 2.1985374198264e-11 -2.241549038397831e-11)
(0.009999999098992702 2.469267143187701e-11 -2.355734964737387e-11)
(0.009999999115359419 2.72587394496725e-11 -2.467747143783405e-11)
(0.009999999136262152 2.967539382628476e-11 -2.576279059876458e-11)
(0.009999999162860191 3.192152514541686e-11 -2.683376550474613e-11)
(0.009999999195988976 3.39914730911043e-11 -2.787842734441633e-11)
(0.00999999923614533 3.58731059614526e-11 -2.891110744904205e-11)
(0.009999999283472607 3.756534987589621e-11 -2.992006625096496e-11)
(0.009999999337759368 3.906582063048584e-11 -3.091307591851514e-11)
(0.009999999398437785 4.037753178684542e-11 -3.187836357734572e-11)
(0.009999999464594803 4.150600206413784e-11 -3.281704877462786e-11)
(0.009999999534985551 4.245654973422585e-11 -3.37174460227076e-11)
(0.009999999608061621 4.323979919777698e-11 -3.457425821334963e-11)
(0.00999999968200632 4.386154035459975e-11 -3.537641100198609e-11)
(0.009999999754786514 4.433506526312061e-11 -3.611299666424155e-11)
(0.009999999824214942 4.466521553656009e-11 -3.677435398297824e-11)
(0.009999999888027819 4.486616950356889e-11 -3.734492673868749e-11)
(0.009999999943972396 4.494104734620998e-11 -3.781746244282945e-11)
(0.009999999989904329 4.490370481046223e-11 -3.817268363383297e-11)
(0.01000000002388977 4.475539501177561e-11 -3.840708707016441e-11)
(0.01000000004430834 4.450909048064293e-11 -3.849861820938623e-11)
(0.01000000004995212 4.416456485462414e-11 -3.844844096963566e-11)
(0.01000000004011394 4.373401345930664e-11 -3.823271167973504e-11)
(0.01000000001466098 4.321655344783489e-11 -3.785800076205888e-11)
(0.009999999974085747 4.262382005508507e-11 -3.729943845107184e-11)
(0.009999999919532735 4.19545800010855e-11 -3.656940718126096e-11)
(0.009999999852795033 4.121914914424821e-11 -3.564270718847724e-11)
(0.009999999776284341 4.041484460461106e-11 -3.453758030437489e-11)
(0.009999999692974262 3.954870298437929e-11 -3.322930554848546e-11)
(0.009999999606327034 3.861540536116719e-11 -3.174189413916761e-11)
(0.009999999520207508 3.761874709309864e-11 -3.005221913335326e-11)
(0.009999999438793145 3.655412561184874e-11 -2.819001542614402e-11)
(0.009999999366475516 3.542893001542902e-11 -2.613492131042695e-11)
(0.009999999307744371 3.424890631514688e-11 -2.392180394744715e-11)
(0.009999999267026952 3.303393851863812e-11 -2.15334036192419e-11)
(0.009999999248454525 3.180229543250832e-11 -1.900775543905995e-11)
(0.009999999255532457 3.057510841730788e-11 -1.632927760022914e-11)
(0.009999999290728999 2.935380888011156e-11 -1.353643707541362e-11)
(0.009999999355062902 2.811772108549068e-11 -1.061506412284199e-11)
(0.009999999447845355 2.681169192913802e-11 -7.60646944736382e-12)
(0.009999999566774486 2.536983314399355e-11 -4.506010321812318e-12)
(0.009999999708498571 2.374502504343131e-11 -1.369802708761575e-12)
(0.009999999869529872 2.197003429876801e-11 1.785919502561548e-12)
(0.01000000004701637 2.017802053916283e-11 4.888320651042178e-12)
(0.01000000023862619 1.858762709722214e-11 7.919034351877209e-12)
(0.01000000044094215 1.736859458340253e-11 1.082562858800685e-11)
(0.01000000064663189 1.649370900275639e-11 1.363082823696608e-11)
(0.0100000008419395 1.558943894114112e-11 1.631646259076145e-11)
(0.0100000010070631 1.40410485322054e-11 1.890267508492206e-11)
(0.01000000112141846 1.127828403585864e-11 2.129956471614233e-11)
(0.01000000117319855 7.29954083288424e-12 2.340846804588746e-11)
(0.01000000116876206 2.920105476877287e-12 2.503073703169534e-11)
(0.01000000113499697 -3.557711417185073e-13 2.60671904200846e-11)
(0.0100000011095881 -1.21350464399563e-12 2.647456906479359e-11)
(0.01000000112107571 5.290250876230485e-13 2.642873003778007e-11)
(0.01000000116910505 3.292614098040945e-12 2.613100708037695e-11)
(0.01000000121931945 4.401255228333622e-12 2.579882869835071e-11)
(0.01000000122167164 1.615764293191791e-12 2.539212434066711e-11)
(0.01000000114641138 -4.990321350590024e-12 2.470526005993467e-11)
(0.0100000010171003 -1.252539634510443e-11 2.336878676679316e-11)
(0.01000000091600428 -1.652319669975393e-11 2.119480806139771e-11)
(0.01000000095033264 -1.384777709167971e-11 1.827830525824987e-11)
(0.01000000119306161 -5.099741115515949e-12 1.509031823111428e-11)
(0.01000000163296792 5.08126735133905e-12 1.219332794455429e-11)
(0.01000000216791987 1.063146862211635e-11 9.995953717533532e-12)
(0.01000000265132754 7.949459146528722e-12 8.488263217322217e-12)
(0.01000000296825284 -1.200211804941468e-12 7.24780582773915e-12)
(0.01000000309485131 -1.019527136322845e-11 5.685731746557345e-12)
(0.01000000309859042 -1.199548169127122e-11 3.57348803327326e-12)
(0.01000000307334179 -5.240571518378227e-12 1.198867394247567e-12)
(0.01000000589345549 -1.389737977449824e-12 4.18155093883976e-12)
(0.0100000048795483 -6.087665094239494e-12 9.277214413358946e-12)
(0.01000000342481011 -7.852877376167134e-12 1.200632579468785e-11)
(0.01000000188571842 -6.256410320371068e-12 1.313003421265223e-11)
(0.01000000054513271 -3.880794297033747e-12 1.32967845067864e-11)
(0.009999999548586243 -3.568757789288205e-12 1.30355361921398e-11)
(0.009999998907602796 -6.668623986350094e-12 1.267909284508529e-11)
(0.009999998544871033 -1.266022980894009e-11 1.233414412271628e-11)
(0.009999998352227344 -1.978530290990593e-11 1.194027411666938e-11)
(0.009999998237073973 -2.606716821563516e-11 1.136421790003715e-11)
(0.009999998145216439 -3.013472561764894e-11 1.049275735742355e-11)
(0.00999999806100006 -3.157823291050947e-11 9.278733337217093e-12)
(0.009999997993647664 -3.081575845192511e-11 7.750332493838717e-12)
(0.00999999796030435 -2.869516638193558e-11 5.983061268643988e-12)
(0.009999997973280363 -2.606771239837218e-11 4.072696520312108e-12)
(0.009999998034374699 -2.350749751107035e-11 2.103547891425404e-12)
(0.009999998135393177 -2.123518427071383e-11 1.400789206853228e-13)
(0.009999998262139018 -1.91840461918928e-11 -1.780312182392683e-12)
(0.00999999839909871 -1.714986555546196e-11 -3.636622600279444e-12)
(0.009999998533002727 -1.49115100475632e-11 -5.422788953990327e-12)
(0.009999998654606625 -1.232805194733527e-11 -7.135611025668901e-12)
(0.009999998758899805 -9.34705871730178e-12 -8.776746690530844e-12)
(0.009999998844342398 -6.007803803048884e-12 -1.034506577624565e-11)
(0.009999998911750477 -2.387348131682684e-12 -1.184260918496927e-11)
(0.009999998963260011 1.411587860489191e-12 -1.326926745565576e-11)
(0.009999999001572094 5.305110170603607e-12 -1.462866338480586e-11)
(0.009999999029503081 9.215805202300608e-12 -1.592320129916848e-11)
(0.009999999049770033 1.309579614888741e-11 -1.715914840771492e-11)
(0.009999999064915242 1.690021768363748e-11 -1.834134025213518e-11)
(0.009999999077291268 2.060240051476653e-11 -1.947749635189592e-11)
(0.009999999089057183 2.416988050674139e-11 -2.05732883853978e-11)
(0.009999999102165369 2.758041217284959e-11 -2.163623039411091e-11)
(0.009999999118336052 3.080486169967936e-11 -2.267142636819271e-11)
(0.009999999139025913 3.382311765734536e-11 -2.368487402731678e-11)
(0.009999999165396843 3.661216295414189e-11 -2.467981409514949e-11)
(0.009999999198289715 3.915864976028663e-11 -2.565970491641251e-11)
(0.00999999923820529 4.145025277873981e-11 -2.662519779303251e-11)
(0.00999999928529271 4.348363006473421e-11 -2.757656299492973e-11)
(0.009999999339344191 4.525836060087547e-11 -2.851136210804681e-11)
(0.009999999399796561 4.678062303850862e-11 -2.942637505193149e-11)
(0.009999999465739135 4.805989009537677e-11 -3.031602746617095e-11)
(0.009999999535929864 4.910919245044943e-11 -3.117372883269811e-11)
(0.009999999608821138 4.994427219885634e-11 -3.199108200568888e-11)
(0.009999999682597236 5.058148466047198e-11 -3.275869185290171e-11)
(0.009999999755224261 5.103906095503562e-11 -3.346601992922053e-11)
(0.009999999824514281 5.133327831818176e-11 -3.410168172152131e-11)
(0.009999999888201647 5.148133722706511e-11 -3.465408595932514e-11)
(0.009999999944031711 5.14966108601174e-11 -3.51107408771976e-11)
(0.009999999989857547 5.139264800399838e-11 -3.545999489049431e-11)
(0.01000000002374284 5.117803282940834e-11 -3.56894984106323e-11)
(0.01000000004406465 5.086127073433875e-11 -3.578854201381238e-11)
(0.01000000004961282 5.044585216131671e-11 -3.574578784013006e-11)
(0.01000000003967833 4.993554682166521e-11 -3.555240153923347e-11)
(0.01000000001412685 4.932994652952921e-11 -3.519885392270356e-11)
(0.009999999973449903 4.862958729277844e-11 -3.467882441713511e-11)
(0.009999999918791054 4.783182326779889e-11 -3.398513566919808e-11)
(0.009999999851942677 4.693514496327568e-11 -3.311438566931704e-11)
(0.009999999775315491 4.593523395858527e-11 -3.206211312070665e-11)
(0.009999999691882519 4.482850193485145e-11 -3.082818791910793e-11)
(0.009999999605105798 4.360914854055464e-11 -2.941130941222522e-11)
(0.009999999518851835 4.227302154158218e-11 -2.781504358437386e-11)
(0.009999999437302041 4.081723075852083e-11 -2.604184229371131e-11)
(0.009999999364855478 3.924535366822751e-11 -2.409927752147686e-11)
(0.00999999930601163 3.756886295114268e-11 -2.199365880389891e-11)
(0.009999999265207823 3.581048244397019e-11 -1.973598151225338e-11)
(0.009999999246580951 3.400142528642455e-11 -1.733503722511988e-11)
(0.009999999253632468 3.217535803762363e-11 -1.480311021332088e-11)
(0.009999999288813581 3.03551023726747e-11 -1.214946060423979e-11)
(0.009999999353115355 2.853927025259032e-11 -9.387108885345613e-12)
(0.00999999944582311 2.669336080299341e-11 -6.529044058872123e-12)
(0.009999999564631299 2.476001070839337e-11 -3.596992495524869e-12)
(0.009999999706228588 2.269109379560155e-11 -6.195776530721e-13)
(0.009999999867213397 2.050167761252746e-11 2.361956116803085e-12)
(0.01000000004483603 1.831139406771629e-11 5.303462183303798e-12)
(0.01000000023681096 1.634324082316782e-11 8.16339183751225e-12)
(0.01000000043963778 1.483041120464692e-11 1.092030112170849e-11)
(0.01000000064574205 1.386536337133569e-11 1.357217237901588e-11)
(0.01000000084105832 1.323932335290062e-11 1.613028339370222e-11)
(0.01000000100559868 1.24402658313595e-11 1.858316018427132e-11)
(0.0100000011189337 1.084854810151396e-11 2.086861395494458e-11)
(0.01000000116979993 8.150945196572191e-12 2.285554714238299e-11)
(0.01000000116526632 4.676119040584266e-12 2.438225298744895e-11)
(0.0100000011326234 1.44469835399787e-12 2.532600917176909e-11)
(0.01000000110922955 -3.362978298615497e-13 2.568821839271387e-11)
(0.01000000112253965 -3.68840374883123e-14 2.561471000583899e-11)
(0.01000000117091078 1.739885839576657e-12 2.533507154067248e-11)
(0.01000000121938806 3.28428742535643e-12 2.501627377471379e-11)
(0.01000000121865822 2.685135100377768e-12 2.463574153705428e-11)
(0.01000000114084458 -8.267697290702035e-13 2.395165177304417e-11)
(0.01000000101142426 -6.142938241417754e-12 2.263460634199565e-11)
(0.01000000091322911 -1.069973207257643e-11 2.049358946432106e-11)
(0.0100000009520046 -1.212823348695596e-11 1.766148095827938e-11)
(0.01000000119797473 -9.95284375747908e-12 1.458659582009862e-11)
(0.01000000163768328 -6.16186789092985e-12 1.182114094110015e-11)
(0.01000000216900072 -3.956168032070687e-12 9.728849670320627e-12)
(0.01000000264792547 -5.437360631188091e-12 8.283044389268277e-12)
(0.01000000296321468 -9.688776517178547e-12 7.062276111136166e-12)
(0.01000000309298301 -1.29177051000349e-11 5.522230936403076e-12)
(0.01000000310267265 -1.124530260578058e-11 3.466670353544278e-12)
(0.01000000308181347 -4.419736104863348e-12 1.167780108710298e-12)
(0.01000000589288114 -1.244620725928022e-12 4.111641582758702e-12)
(0.01000000487930064 -3.500020412361901e-12 9.105129844539018e-12)
(0.01000000342598878 -3.499239786804268e-12 1.176472218257305e-11)
(0.0100000018869817 -2.061112738820992e-12 1.284042108749538e-11)
(0.01000000054441368 -1.471089916549089e-12 1.297122131926897e-11)
(0.009999999544739244 -3.561430664268132e-12 1.268581385771878e-11)
(0.009999998901018449 -8.651845559431334e-12 1.231614532582408e-11)
(0.009999998537112406 -1.559321144429379e-11 1.197388542484331e-11)
(0.009999998345183817 -2.252482055042965e-11 1.159875043233624e-11)
(0.009999998232166667 -2.777530705434187e-11 1.105981521643773e-11)
(0.009999998142987809 -3.046172203369622e-11 1.023933333956213e-11)
(0.009999998061150775 -3.062237755037728e-11 9.088736707685352e-12)
(0.009999997995375504 -2.895875761411034e-11 7.629097527323969e-12)
(0.009999997962720223 -2.641179427941915e-11 5.935529324989698e-12)
(0.009999997975719786 -2.378145371601449e-11 4.098587268191136e-12)
(0.009999998036526245 -2.152230216961865e-11 2.204810292684855e-12)
(0.009999998137261421 -1.972363192909552e-11 3.151997759980742e-13)
(0.00999999826391715 -1.821960551179366e-11 -1.528876851508941e-12)
(0.009999998401027721 -1.673832513565677e-11 -3.310177132402001e-12)
(0.009999998535270066 -1.503072839803556e-11 -5.018988696869805e-12)
(0.00999999865730203 -1.293912737372088e-11 -6.656154620538266e-12)
(0.009999998762018894 -1.041311082500573e-11 -8.220073927089699e-12)
(0.009999998847816473 -7.485244021837094e-12 -9.713909364384056e-12)
(0.009999998915482249 -4.236129155790458e-12 -1.113649051448751e-11)
(0.0099999989671517 -7.591583611743381e-13 -1.249163480987702e-11)
(0.009999999005540742 2.859648282060865e-12 -1.377973308374969e-11)
(0.009999999033484589 6.551614806235889e-12 -1.500683206173914e-11)
(0.009999999053716169 1.026390292202724e-11 -1.617603620496218e-11)
(0.00999999906878811 1.395559015571216e-11 -1.729543105955188e-11)
(0.009999999081058024 1.759137592538337e-11 -1.836985476927141e-11)
(0.009999999092686819 2.11379855459527e-11 -1.940789161325244e-11)
(0.009999999105627672 2.45618203727174e-11 -2.041449743625317e-11)
(0.009999999121602111 2.782985456667345e-11 -2.139731534317462e-11)
(0.009999999142069452 3.091007293870489e-11 -2.236011939840692e-11)
(0.009999999168195734 3.377411145894152e-11 -2.330830814814654e-11)
(0.009999999200827074 3.639777281655454e-11 -2.424348673202389e-11)
(0.009999999240470309 3.876317643605811e-11 -2.516794281662284e-11)
(0.009999999287280695 4.085824560628993e-11 -2.60805591532909e-11)
(0.009999999341056363 4.267748290181969e-11 -2.698015448207498e-11)
(0.009999999401239331 4.422089864425388e-11 -2.78624887918577e-11)
(0.009999999466923367 4.549403943843184e-11 -2.872278682258862e-11)
(0.009999999536869926 4.650647297821335e-11 -2.95539147841803e-11)
(0.009999999609533905 4.727161587517182e-11 -3.034790856115673e-11)
(0.009999999683101111 4.780510826606086e-11 -3.109521672268984e-11)
(0.009999999755538303 4.812463348831408e-11 -3.178538690931666e-11)
(0.009999999824657213 4.824854166370071e-11 -3.240733684010955e-11)
(0.009999999888191152 4.819538065078305e-11 -3.294909653277246e-11)
(0.009999999943883708 4.798309657591509e-11 -3.339907302547088e-11)
(0.009999999989585754 4.762842813286334e-11 -3.374480057362338e-11)
(0.0100000000233584 4.714667006138544e-11 -3.397526193488129e-11)
(0.01000000004357616 4.655110996654697e-11 -3.407851838991682e-11)
(0.0100000000490264 4.585356078124969e-11 -3.404508937135739e-11)
(0.01000000003899804 4.506374360040817e-11 -3.38644313762833e-11)
(0.01000000001335503 4.419055176039391e-11 -3.352937237750825e-11)
(0.009999999972587633 4.324107790582021e-11 -3.303138470210646e-11)
(0.009999999917838294 4.222225338454385e-11 -3.236610727694313e-11)
(0.009999999850898439 4.113909759725944e-11 -3.152747160561941e-11)
(0.009999999774177695 3.999641924080857e-11 -3.051421446249827e-11)
(0.00999999969064817 3.879651049205919e-11 -2.932310401437854e-11)
(0.009999999603771561 3.754154118650007e-11 -2.795634249271099e-11)
(0.009999999517415589 3.623196577831634e-11 -2.641404863931779e-11)
(0.009999999435765466 3.487091232087832e-11 -2.470228908577e-11)
(0.009999999363227161 3.34642790041098e-11 -2.282498218208948e-11)
(0.009999999304309498 3.202634581145238e-11 -2.079195079995948e-11)
(0.009999999263459526 3.05784802860644e-11 -1.861022213070414e-11)
(0.009999999244819424 2.915009839413088e-11 -1.62919591012444e-11)
(0.009999999251886134 2.776870504373016e-11 -1.384520753253132e-11)
(0.009999999287092909 2.645050003677231e-11 -1.12823484929588e-11)
(0.009999999351401161 2.518345800991935e-11 -8.612293864177211e-12)
(0.009999999444066085 2.39219774197944e-11 -5.850950973718741e-12)
(0.009999999562772185 2.259245256153281e-11 -3.016423916202283e-12)
(0.009999999704240261 2.112732679776593e-11 -1.402518726163449e-13)
(0.009999999865150195 1.951301637631487e-11 2.740039618808988e-12)
(0.01000000004285791 1.783790233578242e-11 5.578285749985556e-12)
(0.01000000023514522 1.629289151511291e-11 8.338295852395175e-12)
(0.01000000043846429 1.510126555054141e-11 1.099797336534536e-11)
(0.01000000064504078 1.437498019923661e-11 1.356113572131836e-11)
(0.01000000084051436 1.397157129573375e-11 1.603660780558058e-11)
(0.01000000100467231 1.34559448652858e-11 1.841556317161e-11)
(0.01000000111712916 1.226182627655295e-11 2.062976577760458e-11)
(0.01000000116702614 1.002453328680095e-11 2.254984445698974e-11)
(0.01000000116205583 6.917943995417202e-12 2.401130561741361e-11)
(0.01000000112998457 3.736009418500361e-12 2.489993940202576e-11)
(0.0100000011081065 1.56333175571125e-12 2.522014715122806e-11)
(0.01000000112315188 1.137219658719965e-12 2.512662439224905e-11)
(0.01000000117242621 2.279079182318727e-12 2.484460120272281e-11)
(0.0100000012202647 3.833975845127446e-12 2.453770745619864e-11)
(0.01000000121756061 4.284355509256853e-12 2.417053206888405e-11)
(0.01000000113758331 2.722234937461546e-12 2.349850071471007e-11)
(0.01000000100722732 -4.68441951902475e-13 2.219145110727205e-11)
(0.01000000091001901 -3.783520718955235e-12 2.006988429615186e-11)
(0.01000000095107952 -5.628786325924036e-12 1.727307637200835e-11)
(0.01000000119902793 -5.513384887523241e-12 1.425261922372547e-11)
(0.01000000163896465 -4.489162860901909e-12 1.155052616053052e-11)
(0.01000000216864442 -4.384687057878916e-12 9.517431287529629e-12)
(0.01000000264559493 -6.286162909676163e-12 8.115426733402038e-12)
(0.01000000296077246 -9.339533313377513e-12 6.923238024536624e-12)
(0.01000000309329475 -1.099337634813415e-11 5.411732173526829e-12)
(0.01000000310709061 -8.94475674087487e-12 3.398150857938883e-12)
(0.01000000308901345 -3.404856605021297e-12 1.145228703522577e-12)
(0.01000000588871069 -4.152877000644499e-12 4.066929085166974e-12)
(0.01000000487729374 -1.00860726021081e-11 9.002997999887899e-12)
(0.01000000342624903 -1.226414698961168e-11 1.162512031084382e-11)
(0.0100000018877466 -1.186980409796759e-11 1.267208421531037e-11)
(0.01000000054363246 -1.128767322667531e-11 1.27796526833187e-11)
(0.009999999541405536 -1.241784661209552e-11 1.247452662001073e-11)
(0.009999998895570976 -1.575532447561004e-11 1.209275526937551e-11)
(0.009999998530997983 -2.044648964029283e-11 1.174811012361737e-11)
(0.009999998340045219 -2.49795410051094e-11 1.138407944301083e-11)
(0.009999998229137103 -2.799813332565798e-11 1.086813035399473e-11)
(0.009999998142369444 -2.883468568079425e-11 1.008219167874666e-11)
(0.009999998062503014 -2.762096159430591e-11 8.972335721621865e-12)
(0.009999997997858216 -2.505018709825651e-11 7.558557772744288e-12)
(0.009999997965481684 -2.199651103623274e-11 5.911439913954614e-12)
(0.00999999797816991 -1.917717339094536e-11 4.122613708745882e-12)
(0.009999998038432491 -1.697641749397253e-11 2.275654144285845e-12)
(0.009999998138695843 -1.543465927983016e-11 4.347645507537897e-13)
(0.009999998265124311 -1.435416455836077e-11 -1.361323727359621e-12)
(0.009999998402287552 -1.343933696967499e-11 -3.092101748255462e-12)
(0.009999998536801891 -1.241678097147551e-11 -4.750886142829875e-12)
(0.009999998659224255 -1.110045215468884e-11 -6.335904544071755e-12)
(0.009999998764353679 -9.407796763832813e-12 -7.848756367056741e-12)
(0.009999998850519345 -7.339397666008843e-12 -9.290181991747765e-12)
(0.009999998918476574 -4.945978522574802e-12 -1.066234774083081e-11)
(0.009999998970355778 -2.296926711326924e-12 -1.196646948198321e-11)
(0.009999999008882836 5.399104774394699e-13 -1.320597381448522e-11)
(0.009999999036907337 3.507674879725647e-12 -1.438441327855862e-11)
(0.009999999057174047 6.560637449970436e-12 -1.550769061775523e-11)
(0.009999999072242739 9.660654394501424e-12 -1.658136163096638e-11)
(0.009999999084473644 1.277272558553034e-11 -1.761296542640238e-11)
(0.009999999096027615 1.586150811389419e-11 -1.860880052482033e-11)
(0.009999999108857242 1.889010814090845e-11 -1.957614842798543e-11)
(0.009999999124684304 2.182071745515859e-11 -2.052073788672009e-11)