/*--------------------------------*- C++ -*----------------------------------*\
| =========                 |                                                 |
| \\      /  F ield         | OpenFOAM: The Open Source CFD Toolbox           |
|  \\    /   O peration     | Version:  v1812                                 |
|   \\  /    A nd           | Web:      www.OpenFOAM.com                      |
|    \\/     M anipulation  |                                                 |
\*---------------------------------------------------------------------------*/
FoamFile
{
    version     2.0;
    format      ascii;
    class       volScalarField;
    location    "1000";
    object      k;
}
// * * * * * * * * * * * * * * * * * * * * * * * * * * * * * * * * * * * * * //

dimensions      [0 2 -2 0 0 0 0];


internalField   nonuniform List<scalar> 
125
(
0.003744880319575052
0.00373957455897565
0.003734119975173342
0.003728530255541638
0.003722771483056459
0.003744880319574985
0.00373957455897525
0.003734119975171696
0.003728530255537545
0.003722771483048154
0.00374488031957533
0.003739574558975591
0.003734119975171728
0.003728530255537
0.003722771483046809
0.003744880319575025
0.003739574558975233
0.003734119975171433
0.003728530255536873
0.003722771483046706
0.003744880319574852
0.003739574558974912
0.003734119975171357
0.003728530255537477
0.003722771483048415
0.003744084709181961
0.003733081303798014
0.003719795622486164
0.003704783107529503
0.003689237462880065
0.00374408470918108
0.00373308130379591
0.003719795622488858
0.003704783107550823
0.003689237462932158
0.003744084709181027
0.003733081303795408
0.003719795622488394
0.003704783107554009
0.00368923746294262
0.003744084709180925
0.003733081303795366
0.003719795622488324
0.003704783107553284
0.003689237462940465
0.003744084709181093
0.003733081303795933
0.003719795622488334
0.00370478310754742
0.003689237462920945
0.003745777267415928
0.003738690684218455
0.003729828874219831
0.003719458630614226
0.003708745511828204
0.003745777267414003
0.00373869068421246
0.003729828874210396
0.003719458630606125
0.003708745511841557
0.003745777267413467
0.003738690684210591
0.003729828874206702
0.003719458630600942
0.003708745511838626
0.003745777267413506
0.003738690684210726
0.003729828874206522
0.003719458630601606
0.003708745511839246
0.003745777267414135
0.003738690684212729
0.003729828874212172
0.00371945863060862
0.00370874551184289
0.003744084709182872
0.003733081303821946
0.003719795622575528
0.003704783107691962
0.003689237462979892
0.003744084709182665
0.003733081303823296
0.00371979562258068
0.003704783107714038
0.003689237463029542
0.00374408470918269
0.003733081303823734
0.003719795622579724
0.003704783107716489
0.003689237463037538
0.003744084709182592
0.003733081303821547
0.003719795622580095
0.003704783107715842
0.003689237463036012
0.003744084709182173
0.003733081303823862
0.003719795622579472
0.00370478310771146
0.003689237463020115
0.003744880319568482
0.003739574558967559
0.003734119975163954
0.003728530255529269
0.003722771483037489
0.003744880319571646
0.003739574558970673
0.003734119975165727
0.003728530255527858
0.003722771483033019
0.003744880319572134
0.003739574558968025
0.003734119975164095
0.003728530255525777
0.003722771483031138
0.003744880319570076
0.003739574558969742
0.003734119975164781
0.003728530255527799
0.003722771483033241
0.003744880319571852
0.003739574558967599
0.003734119975164697
0.003728530255527265
0.003722771483033285
)
;

boundaryField
{
    inlet
    {
        type            inletOutlet;
        inletValue      uniform 0.00375;
        value           uniform 0.00375;
    }
    outlet
    {
        type            inletOutlet;
        inletValue      uniform 0.00375;
        value           nonuniform List<scalar> 
25
(
0.003722771483056459
0.003722771483048154
0.003722771483046809
0.003722771483046706
0.003722771483048415
0.003689237462880065
0.003689237462932158
0.00368923746294262
0.003689237462940465
0.003689237462920945
0.003708745511828204
0.003708745511841557
0.003708745511838626
0.003708745511839246
0.00370874551184289
0.003689237462979892
0.003689237463029542
0.003689237463037538
0.003689237463036012
0.003689237463020115
0.003722771483037489
0.003722771483033019
0.003722771483031138
0.003722771483033241
0.003722771483033285
)
;
    }
    wall
    {
        type            kqRWallFunction;
        value           nonuniform List<scalar> 
50
(
0.003744880319568482
0.003744880319571646
0.003744880319572134
0.003744880319570076
0.003744880319571852
0.003739574558967559
0.003739574558970673
0.003739574558968025
0.003739574558969742
0.003739574558967599
0.003734119975163954
0.003734119975165727
0.003734119975164095
0.003734119975164781
0.003734119975164697
0.003728530255529269
0.003728530255527858
0.003728530255525777
0.003728530255527799
0.003728530255527265
0.003722771483037489
0.003722771483033019
0.003722771483031138
0.003722771483033241
0.003722771483033285
0.003744880319575052
0.003744880319574985
0.00374488031957533
0.003744880319575025
0.003744880319574852
0.00373957455897565
0.00373957455897525
0.003739574558975591
0.003739574558975233
0.003739574558974912
0.003734119975173342
0.003734119975171696
0.003734119975171728
0.003734119975171433
0.003734119975171357
0.003728530255541638
0.003728530255537545
0.003728530255537
0.003728530255536873
0.003728530255537477
0.003722771483056459
0.003722771483048154
0.003722771483046809
0.003722771483046706
0.003722771483048415
)
;
    }
    symm_left
    {
        type            cyclic;
    }
    symm_right
    {
        type            cyclic;
    }
}


// ************************************************************************* //
