/*--------------------------------*- C++ -*----------------------------------*\
| =========                 |                                                 |
| \\      /  F ield         | OpenFOAM: The Open Source CFD Toolbox           |
|  \\    /   O peration     | Version:  v1812                                 |
|   \\  /    A nd           | Web:      www.OpenFOAM.com                      |
|    \\/     M anipulation  |                                                 |
\*---------------------------------------------------------------------------*/
FoamFile
{
    version     2.0;
    format      ascii;
    class       volScalarField;
    location    "1000";
    object      nut;
}
// * * * * * * * * * * * * * * * * * * * * * * * * * * * * * * * * * * * * * //

dimensions      [0 2 -1 0 0 0 0];


internalField   nonuniform List<scalar> 
125
(
0.002321746019990572
0.002319077456614167
0.00231596566532578
0.002312827190159
0.002309719515469942
0.002321746019990468
0.002319077456613841
0.002315965665324592
0.002312827190156262
0.002309719515464573
0.002321746019990694
0.002319077456613959
0.00231596566532445
0.002312827190155769
0.002309719515463781
0.002321746019990507
0.002319077456613792
0.00231596566532441
0.002312827190155893
0.002309719515463754
0.002321746019990414
0.002319077456613695
0.002315965665324571
0.002312827190156507
0.002309719515464777
0.2959292331288492
0.2040762842336429
0.1644630740382544
0.141500830056439
0.1265799833507221
0.2959292331244314
0.2040762842702764
0.1644630741757379
0.1415008303356002
0.1265799837100686
0.2959292331300165
0.2040762842769798
0.1644630741885506
0.1415008303830312
0.1265799837798542
0.2959292331287927
0.2040762842757593
0.1644630741868183
0.1415008303768966
0.1265799837695631
0.2959292331245916
0.2040762842714882
0.1644630741671206
0.1415008303006912
0.1265799836419992
0.5597586347175514
0.4508975939486632
0.3745740126002731
0.320688235510324
0.2830038074549276
0.5597586348874574
0.4508975945083602
0.3745740139059605
0.3206882377940753
0.2830038101182303
0.5597586349258067
0.4508975946244275
0.3745740141356973
0.3206882381551245
0.2830038105519765
0.5597586349222168
0.4508975946125715
0.3745740141107592
0.3206882381122736
0.2830038104905209
0.5597586348687238
0.4508975944335398
0.3745740137272354
0.3206882374669894
0.2830038096059095
0.2959292334160518
0.2040762849261832
0.1644630750968097
0.1415008311491699
0.1265799833859582
0.2959292334073115
0.2040762849515226
0.1644630752042552
0.1415008313706202
0.1265799836527297
0.2959292334123081
0.2040762849591
0.1644630752153389
0.141500831403715
0.126579983698509
0.2959292334112479
0.2040762849576687
0.1644630752140001
0.141500831397926
0.1265799836887582
0.2959292334074247
0.2040762849531632
0.1644630751954882
0.1415008313350218
0.1265799835829643
0.002321746019987735
0.002319077456610218
0.002315965665321366
0.002312827190152883
0.002309719515459083
0.002321746019989677
0.002319077456611981
0.002315965665322243
0.002312827190151872
0.002309719515456172
0.002321746019990007
0.002319077456610211
0.002315965665321187
0.00231282719015059
0.002309719515455149
0.002321746019988704
0.002319077456611402
0.002315965665321768
0.002312827190151929
0.002309719515456431
0.002321746019989837
0.00231907745661015
0.0023159656653217
0.002312827190151677
0.002309719515456408
)
;

boundaryField
{
    inlet
    {
        type            calculated;
        value           nonuniform List<scalar> 
25
(
0.002324804733099013
0.002324804733098929
0.002324804733098897
0.002324804733098896
0.00232480473309895
0.6708203864998737
0.6708203864998737
0.6708203864998737
0.6708203864998737
0.6708203864998737
0.6708203864998737
0.6708203864998737
0.6708203864998737
0.6708203864998737
0.6708203864998737
0.6708203864998737
0.6708203864998737
0.6708203864998737
0.6708203864998737
0.6708203864998737
0.002324804733099736
0.00232480473309963
0.002324804733099637
0.002324804733099689
0.002324804733099632
)
;
    }
    outlet
    {
        type            calculated;
        value           nonuniform List<scalar> 
25
(
0.002309667217763892
0.002309667217758495
0.002309667217757785
0.002309667217757735
0.002309667217758713
0.1265799833507221
0.1265799837100686
0.1265799837798542
0.1265799837695631
0.1265799836419992
0.2830038074549276
0.2830038101182303
0.2830038105519765
0.2830038104905209
0.2830038096059095
0.1265799833859582
0.1265799836527297
0.126579983698509
0.1265799836887582
0.1265799835829643
0.002309667217753878
0.002309667217750929
0.002309667217749898
0.002309667217751204
0.002309667217751164
)
;
    }
    wall
    {
        type            nutkWallFunction;
        Cmu             0.09;
        kappa           0.41;
        E               9.800000000000001;
        value           nonuniform List<scalar> 
50
(
0.00109192246859275
0.001091922468593175
0.001091922468593241
0.001091922468592965
0.001091922468593203
0.001091209460348223
0.001091209460348641
0.001091209460348285
0.001091209460348515
0.001091209460348228
0.001090475886838027
0.001090475886838266
0.001090475886838047
0.001090475886838139
0.001090475886838127
0.001089723542746807
0.001089723542746617
0.001089723542746336
0.001089723542746609
0.001089723542746537
0.001088947812190909
0.001088947812190307
0.001088947812190054
0.001088947812190337
0.001088947812190343
0.001091922468593633
0.001091922468593624
0.00109192246859367
0.001091922468593629
0.001091922468593606
0.00109120946034931
0.001091209460349255
0.001091209460349302
0.001091209460349254
0.00109120946034921
0.00109047588683929
0.001090475886839069
0.001090475886839073
0.001090475886839034
0.001090475886839024
0.001089723542748473
0.001089723542747924
0.001089723542747848
0.001089723542747831
0.001089723542747912
0.001088947812193466
0.001088947812192347
0.001088947812192165
0.001088947812192151
0.001088947812192382
)
;
    }
    symm_left
    {
        type            cyclic;
    }
    symm_right
    {
        type            cyclic;
    }
}


// ************************************************************************* //
