/*--------------------------------*- C++ -*----------------------------------*\
| =========                 |                                                 |
| \\      /  F ield         | OpenFOAM: The Open Source CFD Toolbox           |
|  \\    /   O peration     | Version:  v1812                                 |
|   \\  /    A nd           | Web:      www.OpenFOAM.com                      |
|    \\/     M anipulation  |                                                 |
\*---------------------------------------------------------------------------*/
FoamFile
{
    version     2.0;
    format      ascii;
    class       volScalarField;
    location    "1000";
    object      omega;
}
// * * * * * * * * * * * * * * * * * * * * * * * * * * * * * * * * * * * * * //

dimensions      [0 0 -1 0 0 0 0];


internalField   nonuniform List<scalar> 
125
(
0.2725050228301441
0.2723119113537469
0.2721132403575307
0.2719094967433204
0.2716994314175624
0.2725050228301417
0.2723119113537328
0.2721132403574708
0.2719094967431706
0.2716994314172593
0.272505022830154
0.2723119113537449
0.2721132403574719
0.2719094967431513
0.2716994314172104
0.2725050228301431
0.272311911353732
0.272113240357461
0.2719094967431467
0.2716994314172066
0.2725050228301368
0.2723119113537203
0.2721132403574583
0.2719094967431687
0.271699431417269
0.01265195962425167
0.01829257778686368
0.02261781645660432
0.02618205918687412
0.02914550440931954
0.01265195962443757
0.01829257778356969
0.02261781643771324
0.02618205913537128
0.02914550432699023
0.01265195962419861
0.01829257778296636
0.02261781643594836
0.02618205912661759
0.0291455043110045
0.01265195962425059
0.01829257778307556
0.02261781643618617
0.02618205912774755
0.02914550431335703
0.01265195962443077
0.01829257778346118
0.02261781643889515
0.02618205914180649
0.02914550434257488
0.006691772194467371
0.008291662529128782
0.009957521741371097
0.01159836320373681
0.01310493150315257
0.006691772192432749
0.008291662518823085
0.009957521706636052
0.01159836312111489
0.01310493137987138
0.006691772191973335
0.008291662516684551
0.009957521700518961
0.01159836310804063
0.01310493135977573
0.006691772192016321
0.008291662516902873
0.009957521701181424
0.01159836310959249
0.01310493136262371
0.006691772192656939
0.008291662520199573
0.009957521711391946
0.01159836313295242
0.0131049314035999
0.01265195961197588
0.01829257772490442
0.02261781631156966
0.02618205898583299
0.02914550440199494
0.01265195961234886
0.01829257772263971
0.02261781629682452
0.02618205894501381
0.02914550434096207
0.01265195961213533
0.01829257772196265
0.02261781629529442
0.02618205893890757
0.02914550433048439
0.01265195961218032
0.01829257772208023
0.0226178162954808
0.02618205893997413
0.0291455043327175
0.01265195961234236
0.01829257772249543
0.02261781629802286
0.02618205895158241
0.02914550435695133
0.2725050228299051
0.2723119113534522
0.2721132403571886
0.2719094967428694
0.2716994314168701
0.2725050228300202
0.2723119113535658
0.2721132403572531
0.2719094967428179
0.271699431416707
0.2725050228300379
0.2723119113534695
0.2721132403571938
0.2719094967427421
0.2716994314166384
0.2725050228299628
0.2723119113535321
0.2721132403572187
0.2719094967428158
0.2716994314167153
0.2725050228300276
0.2723119113534538
0.2721132403572157
0.2719094967427963
0.2716994314167169
)
;

boundaryField
{
    inlet
    {
        type            inletOutlet;
        inletValue      uniform 0.00559017;
        value           uniform 0.00559017;
    }
    outlet
    {
        type            inletOutlet;
        inletValue      uniform 0.00559017;
        value           nonuniform List<scalar> 
25
(
0.2716994314175624
0.2716994314172593
0.2716994314172104
0.2716994314172066
0.271699431417269
0.02914550440931954
0.02914550432699023
0.0291455043110045
0.02914550431335703
0.02914550434257488
0.01310493150315257
0.01310493137987138
0.01310493135977573
0.01310493136262371
0.0131049314035999
0.02914550440199494
0.02914550434096207
0.02914550433048439
0.0291455043327175
0.02914550435695133
0.2716994314168701
0.271699431416707
0.2716994314166384
0.2716994314167153
0.2716994314167169
)
;
    }
    wall
    {
        Cmu             0.09;
        kappa           0.41;
        E               9.800000000000001;
        beta1           0.075;
        blended         true;
        type            omegaWallFunction;
        value           nonuniform List<scalar> 
50
(
0.2725050228299051
0.2725050228300202
0.2725050228300379
0.2725050228299628
0.2725050228300276
0.2723119113534522
0.2723119113535658
0.2723119113534695
0.2723119113535321
0.2723119113534538
0.2721132403571886
0.2721132403572531
0.2721132403571938
0.2721132403572187
0.2721132403572157
0.2719094967428694
0.2719094967428179
0.2719094967427421
0.2719094967428158
0.2719094967427963
0.2716994314168701
0.271699431416707
0.2716994314166384
0.2716994314167153
0.2716994314167169
0.2725050228301441
0.2725050228301417
0.272505022830154
0.2725050228301431
0.2725050228301368
0.2723119113537469
0.2723119113537328
0.2723119113537449
0.272311911353732
0.2723119113537203
0.2721132403575307
0.2721132403574708
0.2721132403574719
0.272113240357461
0.2721132403574583
0.2719094967433204
0.2719094967431706
0.2719094967431513
0.2719094967431467
0.2719094967431687
0.2716994314175624
0.2716994314172593
0.2716994314172104
0.2716994314172066
0.271699431417269
)
;
    }
    symm_left
    {
        type            cyclic;
    }
    symm_right
    {
        type            cyclic;
    }
}


// ************************************************************************* //
