/*--------------------------------*- C++ -*----------------------------------*\
| =========                 |                                                 |
| \\      /  F ield         | OpenFOAM: The Open Source CFD Toolbox           |
|  \\    /   O peration     | Version:  v1812                                 |
|   \\  /    A nd           | Web:      www.OpenFOAM.com                      |
|    \\/     M anipulation  |                                                 |
\*---------------------------------------------------------------------------*/
FoamFile
{
    version     2.0;
    format      ascii;
    class       volScalarField;
    location    "1000";
    object      p;
}
// * * * * * * * * * * * * * * * * * * * * * * * * * * * * * * * * * * * * * //

dimensions      [0 2 -2 0 0 0 0];


internalField   nonuniform List<scalar> 
125
(
0.002340916953644242
0.001936442320984884
0.001211434864164538
0.0007581283118589977
0.0001939262294720344
0.002340916953625707
0.00193644232087847
0.001211434864012867
0.0007581283117555956
0.0001939262294905061
0.002340916953562467
0.001936442320757595
0.001211434863914492
0.0007581283117324617
0.0001939262295122389
0.002340916953546778
0.001936442320758935
0.001211434863943708
0.0007581283117907617
0.0001939262295489077
0.00234091695359927
0.001936442320866465
0.001211434864051245
0.0007581283118809206
0.0001939262295791567
0.00177028886533995
0.00145147603724258
0.001034980766106955
0.0006045619663736812
0.0002728004498870103
0.001770288865293844
0.001451476037170669
0.001034980766005759
0.0006045619662982376
0.0002728004498328816
0.001770288865239331
0.00145147603707643
0.001034980765874962
0.000604561966178014
0.0002728004497582991
0.001770288865216277
0.001451476037078163
0.00103498076592351
0.000604561966254292
0.0002728004498186406
0.001770288865281694
0.00145147603716907
0.00103498076606927
0.0006045619664171237
0.0002728004499151041
0.001595895556443794
0.001432815926103457
0.001080259189986984
0.0006160919329629042
0.0003117343481547321
0.001595895556319943
0.001432815925925039
0.001080259189732165
0.00061609193279448
0.0003117343480459296
0.001595895556224216
0.001432815925786123
0.001080259189535588
0.0006160919326235468
0.0003117343479758129
0.001595895556222193
0.00143281592580575
0.001080259189595117
0.0006160919327158734
0.0003117343480355916
0.001595895556321247
0.001432815925968199
0.001080259189840509
0.0006160919328946548
0.0003117343481002679
0.001770288864701892
0.001451476036701699
0.00103498076584963
0.0006045619663383906
0.0002728004497124109
0.001770288864658148
0.001451476036606763
0.001034980765700757
0.0006045619662493055
0.0002728004497009417
0.001770288864584785
0.001451476036493462
0.001034980765584975
0.0006045619661788702
0.0002728004496762877
0.001770288864577502
0.001451476036522924
0.001034980765666192
0.0006045619662311512
0.0002728004496730883
0.001770288864647261
0.001451476036634276
0.001034980765732097
0.0006045619663036808
0.0002728004497583799
0.002340916952344064
0.001936442319451534
0.001211434863086707
0.000758128312601385
0.0001939262304324188
0.002340916952321582
0.001936442319325412
0.001211434862995346
0.0007581283125695716
0.0001939262304419786
0.002340916952238308
0.001936442319258077
0.001211434863040128
0.0007581283125768281
0.0001939262303882571
0.002340916952228189
0.001936442319303055
0.001211434863047004
0.0007581283125780915
0.0001939262304354873
0.002340916952306723
0.001936442319312077
0.001211434862998551
0.0007581283126136409
0.0001939262304866446
)
;

boundaryField
{
    inlet
    {
        type            outletInlet;
        outletValue     uniform 0;
        value           nonuniform List<scalar> 
25
(
0.002340916953644242
0.002340916953625707
0.002340916953562467
0.002340916953546778
0.00234091695359927
0.00177028886533995
0.001770288865293844
0.001770288865239331
0.001770288865216277
0.001770288865281694
0.001595895556443794
0.001595895556319943
0.001595895556224216
0.001595895556222193
0.001595895556321247
0.001770288864701892
0.001770288864658148
0.001770288864584785
0.001770288864577502
0.001770288864647261
0.002340916952344064
0.002340916952321582
0.002340916952238308
0.002340916952228189
0.002340916952306723
)
;
    }
    outlet
    {
        type            outletInlet;
        outletValue     uniform 0;
        value           uniform 0;
    }
    wall
    {
        type            zeroGradient;
    }
    symm_left
    {
        type            cyclic;
    }
    symm_right
    {
        type            cyclic;
    }
}


// ************************************************************************* //
