/*--------------------------------*- C++ -*----------------------------------*\
| =========                 |                                                 |
| \\      /  F ield         | OpenFOAM: The Open Source CFD Toolbox           |
|  \\    /   O peration     | Version:  v1812                                 |
|   \\  /    A nd           | Web:      www.OpenFOAM.com                      |
|    \\/     M anipulation  |                                                 |
\*---------------------------------------------------------------------------*/
FoamFile
{
    version     2.0;
    format      ascii;
    class       surfaceScalarField;
    location    "1000";
    object      phi;
}
// * * * * * * * * * * * * * * * * * * * * * * * * * * * * * * * * * * * * * //

dimensions      [0 3 -1 0 0 0 0];
oriented        oriented;


internalField   nonuniform List<scalar> 
300
(
3.996743671452365
2.88501969036874e-14
0.0007937118833668342
3.995013886067509
2.445355386774862e-13
0.001729785390137684
3.993122146051032
5.265674735772623e-13
0.001891740029193251
3.990987981323936
7.474303360922577e-13
0.002134164711242088
7.967393478082011e-13
0.001737668402485274
3.99674367145257
1.105990148112381e-13
0.0007937118834194649
3.995013886067994
4.124992869699848e-13
0.001729785390133431
3.993122146051751
7.151953734415878e-13
0.00189174002898373
3.990987981325335
8.693979785718478e-13
0.002134164710578214
7.830690439523225e-13
0.001737668401513327
3.996743671452728
3.38289701089202e-14
0.0007937118834341341
3.995013886068186
4.584362473993539e-14
0.001729785390079467
3.993122146051768
3.704614626269145e-15
0.001891740029013895
3.990987981325369
-1.372376742005968e-13
0.00213416471074465
-3.415332255984828e-13
0.001737668401808575
3.99674367145269
-8.915904903314567e-14
0.0007937118834411016
3.995013886068049
-3.65033156139847e-13
0.001729785390078822
3.993122146051502
-6.955107364635881e-13
0.00189174002897484
3.99098798132516
-9.856310113477563e-13
0.002134164710676613
-1.03657516352328e-12
0.001737668401690912
3.996743671452548
0.0007937118834049984
3.995013886067831
0.001729785390087298
3.993122146051257
0.001891740028895681
3.990987981324809
0.002134164710556654
0.001737668401630779
4.000629709999912
4.434293165795468e-14
0.0002268154026670445
4.001770858360651
1.765205054309831e-13
0.0005886370359135428
4.002955250563017
4.259839096081508e-13
0.0007073478304547399
4.00428365164819
6.307513428549566e-13
0.000805763612757979
8.500207403494346e-13
0.0006439118067365726
4.000629710000023
7.152706112910056e-14
0.0002268154027181165
4.001770858360861
2.903556996642821e-13
0.0005886370360091919
4.00295525056321
5.842134241854868e-13
0.0007073478305240532
4.004283651647699
7.691213488321513e-13
0.000805763612425738
8.736918050163447e-13
0.0006439118059801837
4.000629710000102
2.163262598195317e-14
0.0002268154027480556
4.001770858361041
1.924198856921895e-14
0.0005886370360528293
4.002955250563396
-7.994083711332536e-14
0.0007073478305999743
4.004283651647508
-2.267017615616662e-13
0.0008057636124905636
-3.830283485977054e-13
0.0006439118059685553
4.00062971000004
-7.320879952097555e-14
0.000226815402733621
4.001770858360858
-2.771526948526063e-13
0.0005886370360186796
4.002955250563129
-6.217386357808422e-13
0.0007073478305465261
4.004283651647393
-9.028341429800509e-13
0.0008057636124336347
-1.088281253741639e-12
0.0006439118059630037
4.000629709999965
0.0002268154027090051
4.001770858360622
0.0005886370359545214
4.002955250562806
0.0007073478304561744
4.004283651647578
0.0008057636124754907
0.0006439118061830238
4.000548426553719
1.009211923668765e-13
-0.000226815401753661
4.00172570062909
3.251453209391003e-13
-0.0005886370333044323
4.003140396290004
6.639469232069451e-13
-0.0007073478269912969
4.004751923501591
8.094658635444614e-13
-0.0008057636092934728
8.827190986813396e-13
-0.0006439118030658867
4.000548426554158
1.167132158142043e-13
-0.0002268154018002244
4.001725700630045
3.897096840815656e-13
-0.0005886370333323936
4.003140396291285
7.386372256722611e-13
-0.0007073478269545347
4.004751923501482
9.025128446969698e-13
-0.0008057636088778511
8.873105036461661e-13
-0.0006439118022724216
4.000548426554322
4.19681971232518e-15
-0.0002268154018062607
4.001725700630422
-3.162435876296437e-14
-0.0005886370333529176
4.003140396291718
-1.398496951607903e-13
-0.0007073478271355996
4.004751923501375
-2.635835546971681e-13
-0.0008057636091493543
-3.309769936495256e-13
-0.0006439118024077611
4.000548426554255
-1.1792140903791e-13
-0.0002268154018079164
4.001725700630243
-4.15951829022528e-13
-0.0005886370333938544
4.003140396291478
-8.349468718912303e-13
-0.000707347827171667
4.004751923501325
-1.027939523627496e-12
-0.0008057636090713623
-1.044138998416227e-12
-0.000643911802245159
4.000548426554014
-0.0002268154017954619
4.001725700629726
-0.0005886370333270133
4.003140396290865
-0.0007073478268583022
4.0047519235014
-0.0008057636087575211
-0.0006439118022367027
4.000629709999524
4.535885238480179e-14
-0.0007937118825513487
4.001770858358873
2.31128414392852e-13
-0.001729785386683036
4.002955250558841
5.141240240598502e-13
-0.001891740023972915
4.004283651642304
6.438333996897269e-13
-0.002134164706643021
6.908630801628432e-13
-0.001737668400020299
4.00062970999967
8.459363616637801e-14
-0.0007937118826163829
4.001770858359173
3.270073252699928e-13
-0.001729785386606774
4.002955250559033
5.899461017371194e-13
-0.001891740023897851
4.004283651641884
7.125609063594654e-13
-0.002134164706223109
7.381586632823842e-13
-0.001737668399134623
4.00062970999973
1.193000703067083e-14
-0.0007937118826153143
4.001770858359256
-3.135667807073955e-14
-0.001729785386619398
4.002955250559043
-1.490186011835292e-13
-0.001891740024279221
4.004283651641644
-2.075637589822157e-13
-0.002134164706701751
-2.367002722841249e-13
-0.001737668399417961
4.000629709999653
-7.948961793993193e-14
-0.0007937118825864064
4.001770858359055
-3.295060961740784e-13
-0.00172978538669873
4.002955250558897
-5.844251804205474e-13
-0.001891740024195829
4.004283651641671
-7.854820535814584e-13
-0.002134164706511025
-9.265057362636679e-13
-0.001737668399319347
4.000629709999585
-0.0007937118826207964
4.001770858359042
-0.001729785386541192
4.002955250558797
-0.001891740023778671
4.004283651641802
-0.002134164706099543
-0.001737668399069898
3.996743671453116
4.735192378261881e-14
3.995013886068607
3.099155513637073e-13
3.993122146048867
3.864540375857774e-13
3.990987981322743
3.726448918546281e-13
4.475575920100027e-13
3.996743671453379
1.553124292339589e-13
3.995013886068934
3.670215353611852e-13
3.99312214604924
3.489169536084728e-13
3.990987981323763
4.040446826898605e-13
5.300326189709911e-13
3.996743671453381
2.546261498530087e-14
3.995013886068627
-4.326565327261361e-14
3.993122146048931
-1.989496340138382e-14
3.990987981323729
-2.58001178161646e-14
-2.001556560943061e-13
3.996743671453233
-1.461708646140078e-13
3.995013886068512
-2.808784287720979e-13
3.99312214604886
-3.192112414882277e-13
3.990987981323549
-4.451720305647488e-13
-5.900864561890663e-13
3.996743671453371
3.99501388606889
3.993122146049036
3.990987981323391
)
;

boundaryField
{
    inlet
    {
        type            calculated;
        value           nonuniform List<scalar> 
25
(
-3.997537383338343
-3.997537383338395
-3.997537383338359
-3.997537383338357
-3.997537383338371
-4.000062813517204
-4.000062813517222
-4.000062813517228
-4.00006281351722
-4.000062813517214
-4.000094795747424
-4.000094795747548
-4.000094795747582
-4.000094795747565
-4.000094795747511
-4.000062813517153
-4.000062813517171
-4.000062813517173
-4.000062813517165
-4.000062813517151
-3.997537383337412
-3.997537383337358
-3.997537383337302
-3.997537383337405
-3.997537383337334
)
;
    }
    outlet
    {
        type            calculated;
        value           nonuniform List<scalar> 
25
(
3.989250312903058
3.989250312905377
3.98925031290561
3.989250312905519
3.989250312905011
4.005377408231335
4.005377408229849
4.005377408229164
4.005377408229299
4.005377408230168
4.006039747100479
4.006039747097856
4.00603974709694
4.00603974709715
4.006039747098359
4.005377408224311
4.005377408223215
4.005377408222713
4.005377408222794
4.005377408223485
3.989250312905016
3.989250312906711
3.989250312906627
3.989250312906602
3.989250312906324
)
;
    }
    wall
    {
        type            calculated;
        value           uniform 0;
    }
    symm_left
    {
        type            cyclic;
        value           nonuniform List<scalar> 
25
(
-8.378613042378243e-14
-6.406659357535987e-14
-1.044731757452724e-13
-6.416947471701582e-14
-8.373137659365026e-14
-3.372878503332579e-13
-2.083744178369401e-13
-2.666422885506902e-13
-1.953889510355535e-13
-3.509090910820033e-13
-5.499527296439372e-13
-3.085915764243376e-13
-4.281010161150996e-13
-3.708513349139314e-13
-3.964866034262838e-13
-4.948430176017188e-13
-2.710971333920589e-13
-4.210184869187188e-13
-3.643446722343919e-13
-3.0549578809216e-13
-2.016948978642804e-13
-2.522375018302404e-13
-3.938691068884156e-13
-2.646821455995279e-13
-1.874575517838757e-13
)
;
    }
    symm_right
    {
        type            cyclic;
        value           nonuniform List<scalar> 
25
(
8.378613042378243e-14
6.406659357535987e-14
1.044731757452724e-13
6.239326817839882e-14
8.195570761214553e-14
3.372878503332579e-13
2.083744178369401e-13
2.666422885506902e-13
1.971661612255136e-13
3.526827868649813e-13
5.499527296439372e-13
3.085915764243376e-13
4.281010161150996e-13
3.708513349139314e-13
3.964868202667183e-13
4.948430176017188e-13
2.710972418122762e-13
4.210184869187187e-13
3.643447806546092e-13
3.0549578809216e-13
2.016948978642804e-13
2.522375018302404e-13
3.938691339934698e-13
2.646821455995279e-13
1.874575517838757e-13
)
;
    }
}


// ************************************************************************* //
