/*--------------------------------*- C++ -*----------------------------------*\
| =========                 |                                                 |
| \\      /  F ield         | OpenFOAM: The Open Source CFD Toolbox           |
|  \\    /   O peration     | Version:  v1812                                 |
|   \\  /    A nd           | Web:      www.OpenFOAM.com                      |
|    \\/     M anipulation  |                                                 |
\*---------------------------------------------------------------------------*/
FoamFile
{
    version     2.0;
    format      ascii;
    class       volVectorField;
    location    "1000";
    object      U;
}
// * * * * * * * * * * * * * * * * * * * * * * * * * * * * * * * * * * * * * //

dimensions      [0 1 -1 0 0 0 0];


internalField   nonuniform List<vector> 
125
(
(0.9994404786714323 -8.422643240849509e-15 0.0001722917586133794)
(0.9989207321257318 -1.735967313725961e-14 0.0004187737159588375)
(0.9985017466586704 -9.703763593834661e-15 0.0005161491523529823)
(0.9981142779738952 3.696955689380112e-14 0.0006057604638025721)
(0.9973381478241559 1.096256517795271e-13 0.0005602044667715835)
(0.9994404786714575 2.023862210383327e-14 0.0001722917586239735)
(0.99892073212579 1.097596095655414e-13 0.0004187737159711364)
(0.9985017466588487 2.273555260604177e-13 0.0005161491523242988)
(0.998114277974077 3.134156249947376e-13 0.0006057604637297492)
(0.9973381478247102 3.064814951503504e-13 0.0005602044666749231)
(0.9994404786714566 2.270137410544377e-14 0.0001722917586297817)
(0.998920732125852 7.658661935892982e-14 0.0004187737159518485)
(0.9985017466588872 1.197003924479306e-13 0.0005161491523163686)
(0.9981142779740588 1.212262192477465e-13 0.0006057604637589966)
(0.9973381478247556 8.319430675849663e-14 0.0005602044667751885)
(0.9994404786714532 -8.816411132402711e-15 0.0001722917586321118)
(0.9989207321258354 -5.116824525013981e-14 0.0004187737159553224)
(0.9985017466588366 -1.108943727394394e-13 0.0005161491523147114)
(0.9981142779739836 -1.828053699196955e-13 0.000605760463749647)
(0.9973381478247247 -2.506984867880744e-13 0.0005602044667453314)
(0.9994404786714498 -2.570086357152802e-14 0.0001722917586216628)
(0.9989207321257838 -1.178178071736633e-13 0.0004187737159584232)
(0.9985017466587736 -2.264569156735935e-13 0.000516149152304217)
(0.9981142779739284 -2.888051310537365e-13 0.0006057604637105071)
(0.9973381478245991 -2.486014454672782e-13 0.0005602044666671735)
(1.000035792794046 -2.671932925003019e-15 0.0001204046131448823)
(1.000267922724547 -5.018080023552043e-15 0.0003345412467694005)
(1.000609939231335 1.885790179271476e-14 0.0003824012882833018)
(1.000856010733596 6.109423952873562e-14 0.0004219479205587964)
(1.001320229877986 1.068772125186873e-13 0.0003245714790927941)
(1.000035792794052 1.879693968448628e-14 0.0001204046131603689)
(1.000267922724595 8.200022306963191e-14 0.0003345412467791499)
(1.000609939231387 1.832816226306724e-13 0.0003824012882440619)
(1.000856010733654 2.556146320984525e-13 0.0004219479203305809)
(1.001320229877645 3.175035470097487e-13 0.0003245714786861069)
(1.000035792794056 1.489869184602413e-14 0.0001204046131665337)
(1.000267922724628 5.183891218587479e-14 0.0003345412467832575)
(1.000609939231439 8.835295411799646e-14 0.0003824012882676293)
(1.000856010733698 1.037183794624719e-13 0.000421947920368964)
(1.001320229877491 1.016481562424782e-13 0.0003245714787069393)
(1.000035792794051 -7.786002762527126e-15 0.0001204046131648285)
(1.000267922724601 -4.137286798316271e-14 0.0003345412467777638)
(1.000609939231379 -1.203889460251884e-13 0.0003824012882531673)
(1.000856010733627 -2.055987677785553e-13 0.0004219479203466923)
(1.001320229877511 -2.819057357168475e-13 0.0003245714786843095)
(1.000035792794049 -2.323644383209446e-14 0.0001204046131574385)
(1.000267922724564 -8.743919786402522e-14 0.0003345412467666428)
(1.000609939231304 -1.700941981712821e-13 0.0003824012882207425)
(1.000856010733542 -2.148242184103857e-13 0.0004219479203373479)
(1.001320229877706 -2.441097706026673e-13 0.0003245714787550237)
(1.00003210155722 -5.716861427971047e-16 1.309790357843913e-13)
(1.000246409480864 1.025206246245894e-14 3.186921398556889e-13)
(1.000612007634619 4.14438178863809e-14 3.557710260321403e-13)
(1.000937157024296 6.778944646065027e-14 2.570396482533723e-13)
(1.001480753902592 8.613507752306916e-14 3.537870089682509e-13)
(1.000032101557252 3.688768148004529e-14 1.311491784089049e-13)
(1.000246409481043 1.286475697573334e-13 3.266256280199767e-13)
(1.0006120076349 2.56490948946421e-13 3.735416107723886e-13)
(1.000937157024709 3.182373553892934e-13 2.756531240228893e-13)
(1.001480753902015 3.367559072310702e-13 3.586469952913102e-13)
(1.000032101557263 1.864507115696938e-14 1.341026806838501e-13)
(1.000246409481113 5.767297043700286e-14 3.32202057419293e-13)
(1.000612007635009 9.844945163164409e-14 3.693920575154497e-13)
(1.000937157024828 1.117882922356947e-13 2.579558122753306e-13)
(1.001480753901813 9.828021793894642e-14 3.350347209321622e-13)
(1.000032101557258 -1.720414735841929e-14 1.317422166942296e-13)
(1.000246409481083 -7.220935095893652e-14 3.228469959233833e-13)
(1.000612007634952 -1.632824521497554e-13 3.557661728089049e-13)
(1.000937157024768 -2.295671951219886e-13 2.567282840741261e-13)
(1.001480753901854 -2.520597284382151e-13 3.586039912387784e-13)
(1.000032101557241 -3.775893447840388e-14 1.307967003476833e-13)
(1.000246409480984 -1.243706703123314e-13 3.191487874230429e-13)
(1.000612007634806 -2.330967476832175e-13 3.759076999123307e-13)
(1.000937157024583 -2.68221911444383e-13 2.971821023988996e-13)
(1.001480753902121 -2.690727069368443e-13 3.886541529706031e-13)
(1.000035792794021 -2.995823056617398e-15 -0.0001204046129415144)
(1.000267922724362 5.149681859911846e-15 -0.0003345412460159863)
(1.000609939230661 2.005258754945905e-14 -0.0003824012871700141)
(1.000856010732233 4.064907734175418e-14 -0.000421947919396299)
(1.00132022987629 7.401995415778851e-14 -0.0003245714781140001)
(1.000035792794028 2.134262793070408e-14 -0.0001204046129544504)
(1.000267922724424 9.722132774630621e-14 -0.0003345412460108731)
(1.000609939230738 2.072669791190401e-13 -0.0003824012871295949)
(1.000856010732269 2.664068574086508e-13 -0.000421947919175151)
(1.001320229876029 2.767907544304993e-13 -0.000324571477687539)
(1.000035792794032 1.559010419173726e-14 -0.0001204046129559222)
(1.000267922724447 5.085314652762001e-14 -0.0003345412460229752)
(1.000609939230755 7.154000051738925e-14 -0.0003824012872088635)
(1.000856010732263 7.918339212917496e-14 -0.0004219479192748778)
(1.001320229875908 8.810320252302359e-14 -0.0003245714777143849)
(1.000035792794027 -1.053787090757677e-14 -0.0001204046129559037)
(1.000267922724413 -6.078751228710411e-14 -0.0003345412460352875)
(1.000609939230699 -1.24965264962525e-13 -0.000382401287203194)
(1.00085601073224 -1.723862615197771e-13 -0.0004219479192386703)
(1.001320229875934 -2.13848575263247e-13 -0.0003245714776758407)
(1.000035792794021 -2.33990750457944e-14 -0.0001204046129537255)
(1.000267922724394 -9.243763248781331e-14 -0.0003345412460026428)
(1.000609939230697 -1.738949868195191e-13 -0.0003824012870997303)
(1.000856010732194 -2.138519935099848e-13 -0.0004219479191450455)
(1.001320229876079 -2.250597223604469e-13 -0.0003245714776974798)
(0.9994404786712281 -4.66674255745849e-15 -0.0001722917585147152)
(0.9989207321261775 -1.118393950320235e-14 -0.0004187737152232608)
(0.9985017466586933 -1.239889228863064e-14 -0.0005161491510732047)
(0.9981142779732026 2.223337434884067e-15 -0.0006057604625034401)
(0.9973381478243349 3.810128067840884e-14 -0.0005602044662045342)
(0.9994404786712291 2.84773086707593e-14 -0.0001722917585353269)
(0.9989207321262733 1.200898722223109e-13 -0.000418773715210762)
(0.9985017466587783 1.603665995648916e-13 -0.0005161491510810005)
(0.9981142779733082 1.756427976096142e-13 -0.0006057604625213402)
(0.9973381478247484 2.041014231040248e-13 -0.0005602044661895297)
(0.9994404786712128 3.125526489572169e-14 -0.0001722917585369835)
(0.9989207321262806 5.515628743238363e-14 -0.0004187737151980234)
(0.9985017466586529 3.915759154653967e-14 -0.000516149151163156)
(0.9981142779732615 3.287932507621455e-14 -0.0006057604626547773)
(0.9973381478247513 3.699150734121093e-14 -0.0005602044663160399)
(0.999440478671231 -2.089645000911955e-14 -0.0001722917585227473)
(0.9989207321262077 -5.557242286581202e-14 -0.0004187737152224961)
(0.9985017466586502 -4.660704420049289e-14 -0.0005161491511471405)
(0.9981142779732252 -5.169992764999875e-14 -0.0006057604626037378)
(0.9973381478247247 -1.228353781849345e-13 -0.0005602044662853493)
(0.9994404786712229 -3.416930597671779e-14 -0.0001722917585382483)
(0.998920732126273 -1.0848985727295e-13 -0.0004187737151938466)
(0.9985017466587555 -1.405183930215751e-13 -0.0005161491510494297)
(0.9981142779732384 -1.590455490599692e-13 -0.0006057604624853816)
(0.997338147824639 -1.563585647046989e-13 -0.0005602044661518313)
)
;

boundaryField
{
    inlet
    {
        type            inletOutlet;
        inletValue      uniform (1 0 0);
        value           uniform (1 0 0);
    }
    outlet
    {
        type            inletOutlet;
        inletValue      uniform (1 0 0);
        value           nonuniform List<vector> 
25
(
(0.9973381478241559 1.096256517795271e-13 0.0005602044667715835)
(0.9973381478247102 3.064814951503504e-13 0.0005602044666749231)
(0.9973381478247556 8.319430675849663e-14 0.0005602044667751885)
(0.9973381478247247 -2.506984867880744e-13 0.0005602044667453314)
(0.9973381478245991 -2.486014454672782e-13 0.0005602044666671735)
(1.001320229877986 1.068772125186873e-13 0.0003245714790927941)
(1.001320229877645 3.175035470097487e-13 0.0003245714786861069)
(1.001320229877491 1.016481562424782e-13 0.0003245714787069393)
(1.001320229877511 -2.819057357168475e-13 0.0003245714786843095)
(1.001320229877706 -2.441097706026673e-13 0.0003245714787550237)
(1.001480753902592 8.613507752306916e-14 3.537870089682509e-13)
(1.001480753902015 3.367559072310702e-13 3.586469952913102e-13)
(1.001480753901813 9.828021793894642e-14 3.350347209321622e-13)
(1.001480753901854 -2.520597284382151e-13 3.586039912387784e-13)
(1.001480753902121 -2.690727069368443e-13 3.886541529706031e-13)
(1.00132022987629 7.401995415778851e-14 -0.0003245714781140001)
(1.001320229876029 2.767907544304993e-13 -0.000324571477687539)
(1.001320229875908 8.810320252302359e-14 -0.0003245714777143849)
(1.001320229875934 -2.13848575263247e-13 -0.0003245714776758407)
(1.001320229876079 -2.250597223604469e-13 -0.0003245714776974798)
(0.9973381478243349 3.810128067840884e-14 -0.0005602044662045342)
(0.9973381478247484 2.041014231040248e-13 -0.0005602044661895297)
(0.9973381478247513 3.699150734121093e-14 -0.0005602044663160399)
(0.9973381478247247 -1.228353781849345e-13 -0.0005602044662853493)
(0.997338147824639 -1.563585647046989e-13 -0.0005602044661518313)
)
;
    }
    wall
    {
        type            noSlip;
    }
    symm_left
    {
        type            cyclic;
    }
    symm_right
    {
        type            cyclic;
    }
}


// ************************************************************************* //
