/*--------------------------------*- C++ -*----------------------------------*\
| =========                 |                                                 |
| \\      /  F ield         | OpenFOAM: The Open Source CFD Toolbox           |
|  \\    /   O peration     | Version:  v1812                                 |
|   \\  /    A nd           | Web:      www.OpenFOAM.com                      |
|    \\/     M anipulation  |                                                 |
\*---------------------------------------------------------------------------*/
FoamFile
{
    version     2.0;
    format      ascii;
    class       volScalarField;
    location    "1000";
    object      yPlus;
}
// * * * * * * * * * * * * * * * * * * * * * * * * * * * * * * * * * * * * * //

dimensions      [0 0 0 0 0 0 0];


internalField   uniform 0;

boundaryField
{
    inlet
    {
        type            calculated;
        value           uniform 0;
    }
    outlet
    {
        type            calculated;
        value           uniform 0;
    }
    wall
    {
        type            calculated;
        value           nonuniform List<scalar> 
50
(
29438.00802351438
29438.00802352682
29438.00802352873
29438.00802352067
29438.00802352763
29417.14669123658
29417.1466912488
29417.14669123837
29417.14669124512
29417.14669123671
29395.68477844139
29395.68477844838
29395.68477844195
29395.68477844465
29395.68477844432
29373.67488386351
29373.67488385796
29373.67488384975
29373.67488385772
29373.67488385562
29350.98207115599
29350.98207113837
29350.98207113095
29350.98207113924
29350.98207113941
29438.0080235402
29438.00802353994
29438.0080235413
29438.0080235401
29438.00802353942
29417.14669126838
29417.14669126676
29417.14669126814
29417.14669126672
29417.14669126546
29395.68477847834
29395.68477847186
29395.68477847199
29395.68477847084
29395.68477847054
29373.67488391224
29373.67488389617
29373.67488389396
29373.67488389347
29373.67488389584
29350.98207123077
29350.98207119804
29350.98207119272
29350.98207119232
29350.98207119905
)
;
    }
    symm_left
    {
        type            cyclic;
    }
    symm_right
    {
        type            cyclic;
    }
}


// ************************************************************************* //
