# Residuals             
# Time                  	U_solver                	Ux_initial              	Ux_final                	Ux_iters                	Uy_initial              	Uy_final                	Uy_iters                	Uz_initial              	Uz_final                	Uz_iters                	U_converged             	k_solver                	k_initial               	k_final                 	k_iters                 	k_converged             	p_solver                	p_initial               	p_final                 	p_iters                 	p_converged             	omega_solver            	omega_initial           	omega_final             	omega_iters             	omega_converged         
1                       	smoothSolver	9.9999894260861510e-01	2.6914673785146739e-05	4	1.7065225037458491e-02	8.0459708353892141e-06	4	9.7451072426190821e-01	3.0631896194337237e-04	4	0	smoothSolver	9.9999999535050699e-01	2.1783924073249619e-04	4	1	GAMG	1.0000000000000000e+00	5.3944723479952160e-04	6	1	smoothSolver	1.4863733034277130e-02	1.0361063251007901e-05	4	1
2                       	smoothSolver	9.2499280303164944e-01	7.4986452756811380e-04	4	7.9299217528549115e-01	3.0462688128616032e-04	4	8.6532163747644819e-01	2.9814826295359112e-04	4	0	smoothSolver	3.8728514497182293e-01	5.0357829151908617e-05	4	1	GAMG	3.3729704715180282e-02	3.1801600655748287e-05	5	1	smoothSolver	1.1780676224480259e-03	2.8772078333216643e-07	4	1
3                       	smoothSolver	2.0649707052326091e-01	1.0513449577478819e-04	4	6.4302218369742636e-01	1.7201017524874309e-04	4	4.5015330066301462e-01	7.9927602288585808e-05	4	0	smoothSolver	2.5015689381930989e-01	8.6809935153941895e-06	4	1	GAMG	1.7099695027967821e-02	8.9059136973594602e-06	6	1	smoothSolver	2.2334108137232961e-03	1.7565623472752440e-07	4	1
4                       	smoothSolver	1.1473579933806130e-01	2.5355798268623570e-05	4	4.3047800781454287e-01	6.8671008865634267e-05	4	1.5628372876331831e-01	7.7244436413363554e-06	4	0	smoothSolver	1.7537363348191920e-01	5.5682666922135478e-05	4	1	GAMG	3.9470191561329568e-02	1.4793913337027381e-05	6	1	smoothSolver	4.0189538342094632e-03	3.4549817890004191e-06	4	1
5                       	smoothSolver	1.0823065113470060e-01	2.2355599415964461e-05	6	2.1926113821121371e-01	3.3066775471465238e-05	6	9.7831760277599752e-02	7.6621499243049134e-05	4	0	smoothSolver	1.3668019876266341e-01	2.4663494782310640e-05	4	1	GAMG	1.8047040002390571e-01	9.1542713354957338e-05	6	1	smoothSolver	5.4495459987159581e-03	1.8345820721854760e-06	4	1
6                       	smoothSolver	6.6756708743995294e-02	6.6830180077945923e-06	6	1.2771902287547299e-01	2.8035984278951629e-05	6	1.2835038899443160e-01	1.3393884123485989e-05	6	0	smoothSolver	1.2130871915772880e-01	3.8525413182184513e-05	4	1	GAMG	2.6055866408352829e-01	1.7592482301680349e-04	5	1	smoothSolver	1.0642655469958790e-02	5.0778597582670661e-06	4	1
7                       	smoothSolver	1.6192588183851889e-01	1.7926063437844761e-05	6	3.1416759942249162e-01	5.6890437850335252e-05	6	2.4395015186896180e-01	3.1573323526006458e-05	6	0	smoothSolver	1.2772949970091901e-01	1.0027531338796710e-04	4	1	GAMG	1.1728665029549420e-01	5.7398532226356982e-05	5	1	smoothSolver	2.2755377467130560e-02	1.5905346027233852e-05	4	1
8                       	smoothSolver	1.8955110659601010e-01	3.2357801094197002e-05	6	2.6730342527197071e-01	4.6426907400087752e-05	6	1.7127826968767601e-01	2.9438376054418161e-05	6	0	smoothSolver	1.2910108646029569e-01	8.5815395078406084e-05	4	1	GAMG	1.7229318241093869e-01	7.7047463493141080e-05	5	1	smoothSolver	3.9899561309549511e-02	2.1073153330965461e-05	4	1
9                       	smoothSolver	9.4246262670127964e-02	1.8281324036576969e-05	6	1.9136686555669291e-01	3.4631236620141003e-05	6	1.2029899839199180e-01	1.4137969592398490e-05	6	0	smoothSolver	1.3144268965051659e-01	1.3066505471862129e-04	4	1	GAMG	3.2116961634719188e-01	1.5227595520511989e-04	5	1	smoothSolver	4.8228696651651408e-02	4.4096184051959138e-05	4	1
10                      	smoothSolver	6.1408906652917088e-02	1.0314215121514619e-05	6	2.9417467622407262e-01	6.0939977837961563e-05	6	1.8452825341080631e-01	2.8670566797483559e-05	6	0	smoothSolver	1.5620098297900550e-01	1.3948981792013960e-04	4	1	GAMG	4.4248982375398638e-01	1.8813224547861750e-04	5	1	smoothSolver	6.3664527891849371e-02	5.1134570203888448e-05	4	1
11                      	smoothSolver	1.0233947710615790e-01	1.2633498737751700e-05	6	2.7092676007892891e-01	5.3374927885304129e-05	6	1.7776063580124629e-01	2.4632026199535780e-05	6	0	smoothSolver	1.6108071699413651e-01	1.1003032418037780e-05	6	1	GAMG	1.8286833943717001e-01	5.6366120387786757e-05	5	1	smoothSolver	6.7459852629936465e-02	6.5078761561538037e-05	4	1
12                      	smoothSolver	1.2344163703238401e-01	1.6217310147805500e-05	6	2.1505326752752771e-01	3.8495703045903310e-05	6	1.3122208907135241e-01	2.0051463482017598e-05	6	0	smoothSolver	1.7239594044422410e-01	1.4555297191452941e-05	6	1	GAMG	1.2028457099669400e-01	3.5524137245699913e-05	5	1	smoothSolver	6.9402274961435167e-02	6.3421441262364408e-06	6	1
13                      	smoothSolver	9.2568517172394310e-02	1.3423886856049420e-05	6	1.9747734823426449e-01	3.8156289636743509e-05	6	8.6088684984881855e-02	1.3517588407210520e-05	6	0	smoothSolver	1.5744399061061121e-01	1.7723704132530578e-05	6	1	GAMG	1.3363199601614409e-01	5.6500132705796911e-05	5	1	smoothSolver	6.9060892159431564e-02	7.8333286262347784e-06	6	1
14                      	smoothSolver	4.4614767001084507e-02	7.5274779956276661e-06	6	1.5445902413733320e-01	3.0985756273822628e-05	6	7.5533407574876088e-02	1.1261775035328170e-05	6	0	smoothSolver	1.4823820254122949e-01	1.7849438291440550e-05	6	1	GAMG	3.5576557126997288e-01	9.8261456744548053e-05	5	1	smoothSolver	7.2266515706164838e-02	8.6757043919973476e-06	6	1
15                      	smoothSolver	4.8259774222599777e-02	6.4787479535144091e-06	6	1.4096066814165789e-01	2.7353296048654311e-05	6	9.1836471552217691e-02	1.3752727009656840e-05	6	0	smoothSolver	1.3836699062780661e-01	1.7678100776439412e-05	6	1	GAMG	1.8591128847274230e-01	6.8601115937405648e-05	5	1	smoothSolver	7.6985736316489306e-02	8.5181438753671361e-06	6	1
16                      	smoothSolver	6.9810732045654619e-02	8.8467502616690515e-06	6	1.4418413175091160e-01	2.9979508141251951e-05	6	9.7275880504356801e-02	1.5763162030766610e-05	6	0	smoothSolver	1.2887289566578569e-01	1.6432238925534330e-05	6	1	GAMG	1.5216144413499369e-01	1.4508409966788619e-04	4	1	smoothSolver	8.0675980937984171e-02	7.7233898835132616e-06	6	1
17                      	smoothSolver	6.0188405746072218e-02	7.9660183543260085e-06	6	1.2755861025935311e-01	2.5300660127360589e-05	6	8.1958311766815894e-02	1.3888071857763150e-05	6	0	smoothSolver	1.2148287036299510e-01	1.4844266457635560e-05	6	1	GAMG	1.3170405542026409e-01	5.1383061862152302e-05	5	1	smoothSolver	8.0456898593277454e-02	6.9096103453411701e-06	6	1
18                      	smoothSolver	3.3382561073766033e-02	4.5607657339531176e-06	6	1.1571731339962260e-01	2.2216618670981841e-05	6	6.4032444952272657e-02	1.0155707454020791e-05	6	0	smoothSolver	1.1347263287220349e-01	1.3181814414408929e-05	6	1	GAMG	1.9254393875166731e-01	6.0357321588458803e-05	5	1	smoothSolver	7.6519007960289681e-02	6.4016247124944264e-06	6	1
19                      	smoothSolver	1.8905854064025340e-02	3.3707089914870421e-06	6	1.0622932039944770e-01	1.8536524585849911e-05	6	5.7261049590614517e-02	7.8541682174431773e-06	6	0	smoothSolver	1.0844257669019530e-01	1.2457836144205470e-05	6	1	GAMG	4.6144243184461498e-01	4.5687783692755217e-04	4	1	smoothSolver	7.1444966571015983e-02	6.3142029033773893e-06	6	1
20                      	smoothSolver	2.7789410450110200e-02	4.6213259999976914e-06	6	1.0107515430754800e-01	1.6761332076068338e-05	6	5.5980720599258862e-02	7.5203377735620643e-06	6	0	smoothSolver	9.8732962687656148e-02	1.1326767690429010e-05	6	1	GAMG	1.5641380561040041e-01	1.3886788713078269e-04	4	1	smoothSolver	6.7015082709184728e-02	6.3795574276851748e-06	6	1
21                      	smoothSolver	3.3105444741640622e-02	5.3134944012136627e-06	6	9.2843617536202461e-02	1.4297173527087580e-05	6	5.2184244183391119e-02	7.1021958661656860e-06	6	0	smoothSolver	8.9034748718862772e-02	1.0426667657914830e-05	6	1	GAMG	1.3616313036979519e-01	3.7743711039507168e-05	5	1	smoothSolver	6.3052250831323167e-02	6.4139262905128564e-06	6	1
22                      	smoothSolver	2.5789598042961201e-02	4.2673455422487651e-06	6	8.4223064311054419e-02	1.1816733354115680e-05	6	4.7376610352637093e-02	6.5201660564247552e-06	6	0	smoothSolver	8.1271695733745639e-02	9.4756606534378653e-06	6	1	GAMG	1.5966127264622951e-01	5.4540603431216842e-05	5	1	smoothSolver	6.0857735634576367e-02	6.2655476680552749e-06	6	1
23                      	smoothSolver	1.5714241304316260e-02	2.4729973442513498e-06	6	7.6092531235559896e-02	1.0370651868777491e-05	6	4.6378710733931912e-02	5.9330793561789824e-06	6	0	smoothSolver	7.4967114556502207e-02	8.5012406773153310e-06	6	1	GAMG	2.9491999812254011e-01	2.8351381241188759e-04	4	1	smoothSolver	6.0198561489285311e-02	5.9854645936141094e-06	6	1
24                      	smoothSolver	1.4164268448002150e-02	2.0941058187183861e-06	6	6.9476549571299270e-02	9.8172797342863001e-06	6	4.6995658883382717e-02	5.6820657531767088e-06	6	0	smoothSolver	6.9643573027649411e-02	7.4586640756855534e-06	6	1	GAMG	2.4756076932216439e-01	7.1840425502608262e-05	5	1	smoothSolver	5.9564677412786399e-02	5.5459325534966234e-06	6	1
25                      	smoothSolver	1.7842954623159570e-02	2.2936773319464388e-06	6	6.4476274056238805e-02	9.2283842313778568e-06	6	4.5940865919703130e-02	5.3933803995936342e-06	6	0	smoothSolver	6.4275546180340926e-02	6.4457765227560798e-06	6	1	GAMG	1.7946593462436511e-01	1.6649868535968681e-04	4	1	smoothSolver	5.8319277815474080e-02	5.0571564924414369e-06	6	1
26                      	smoothSolver	1.7052800290504440e-02	2.1094660044191452e-06	6	5.9212565579651558e-02	8.0554932282841243e-06	6	4.3883683287061277e-02	5.0063893423892944e-06	6	0	smoothSolver	5.9746776584886092e-02	5.6015619209491129e-06	6	1	GAMG	1.7361433769530549e-01	6.4436822139768310e-05	5	1	smoothSolver	5.5708274623289818e-02	4.5825257485375478e-06	6	1
27                      	smoothSolver	1.3120309200447830e-02	1.6301132572886260e-06	6	5.4781646744456958e-02	6.9582548462989974e-06	6	4.1031654049739810e-02	4.5303147246490620e-06	6	0	smoothSolver	5.5703008336818127e-02	4.9533901488623796e-06	6	1	GAMG	1.9273927302591939e-01	6.7116574219559257e-05	5	1	smoothSolver	5.2869467896460097e-02	4.2206417985768270e-06	6	1
28                      	smoothSolver	1.1064049424156929e-02	1.6130584358350029e-06	6	5.1887893465528641e-02	6.3653569365382866e-06	6	3.8938087552522337e-02	4.1115012865285013e-06	6	0	smoothSolver	5.1949664618048341e-02	4.4533838611692298e-06	6	1	GAMG	2.5793067204623149e-01	6.8516744624461367e-05	5	1	smoothSolver	4.9766624150549908e-02	3.9376266665280964e-06	6	1
29                      	smoothSolver	1.1437842503909459e-02	1.7408245918025970e-06	6	5.0102632423614298e-02	6.1470718540161264e-06	6	3.7824339786635588e-02	3.8739072645482433e-06	6	0	smoothSolver	4.8679274240599750e-02	4.0595143754419937e-06	6	1	GAMG	2.4049131059840681e-01	2.3050871520011141e-04	4	1	smoothSolver	4.6636276623404443e-02	3.7235757124969172e-06	6	1
30                      	smoothSolver	1.1700557044426140e-02	1.7457769606949540e-06	6	4.8762561781776279e-02	6.0367454139472340e-06	6	3.7007693244071889e-02	3.7871798357086131e-06	6	0	smoothSolver	4.5936921695252667e-02	3.7222410530718511e-06	6	1	GAMG	2.2620741083548551e-01	1.4027698692780020e-04	5	1	smoothSolver	4.3926456448252840e-02	3.5284768685101571e-06	6	1
31                      	smoothSolver	1.0917515894466091e-02	1.5504224811335220e-06	6	4.7924675085361447e-02	6.0478429016304361e-06	6	3.6382192012981672e-02	3.7291498417580342e-06	6	0	smoothSolver	4.3811385211828653e-02	3.4684507349319511e-06	6	1	GAMG	2.3095127805781879e-01	8.9113774685260357e-05	5	1	smoothSolver	4.1125443832088868e-02	3.3623450035795368e-06	6	1
32                      	smoothSolver	9.9733843930952699e-03	1.2899154510616701e-06	6	4.6115619915467539e-02	5.6768537643039258e-06	6	3.5748935820576172e-02	3.6410475027759420e-06	6	0	smoothSolver	4.1800686913152738e-02	3.2170641166517799e-06	6	1	GAMG	2.5234090862306441e-01	1.3791803707116561e-04	5	1	smoothSolver	3.9265123940789383e-02	3.2172509484842191e-06	6	1
33                      	smoothSolver	9.8017835561925691e-03	1.1595445287815899e-06	6	4.4877498215998401e-02	5.4793750635795521e-06	6	3.5484690252903107e-02	3.5883054663560369e-06	6	0	smoothSolver	4.0218636599997228e-02	3.0256863614932028e-06	6	1	GAMG	2.0133100895631159e-01	1.7915598853248269e-04	4	1	smoothSolver	3.7363760308567917e-02	3.0729167646738228e-06	6	1
34                      	smoothSolver	9.9663554963723283e-03	1.1392870329329740e-06	6	4.3090000969451557e-02	5.0434018217923820e-06	6	3.5173073326351390e-02	3.5611447771836539e-06	6	0	smoothSolver	3.8708942460587550e-02	2.8546278626465011e-06	6	1	GAMG	1.8338447412318579e-01	1.7853196277793851e-04	4	1	smoothSolver	3.5907217163848149e-02	2.9568081563603479e-06	6	1
35                      	smoothSolver	9.8555881741048783e-03	1.1315686372790799e-06	6	4.1474754843243339e-02	4.7126038645798093e-06	6	3.4885191172507192e-02	3.5326941386749559e-06	6	0	smoothSolver	3.7417009938613209e-02	2.7585492710425901e-06	6	1	GAMG	1.8211826472338469e-01	9.4362586388104647e-05	5	1	smoothSolver	3.4405297999663340e-02	2.8607315934685089e-06	6	1
36                      	smoothSolver	9.5987007593305324e-03	1.1249244202739941e-06	6	4.0268467425606143e-02	4.3738747197888317e-06	6	3.4457009408420163e-02	3.4960535509958521e-06	6	0	smoothSolver	3.6139597945380138e-02	2.6863807948797202e-06	6	1	GAMG	1.9609702359425871e-01	8.0566173105878198e-05	5	1	smoothSolver	3.3081258934092209e-02	2.7974192472155539e-06	6	1
37                      	smoothSolver	9.4598807284256466e-03	1.1195720950227881e-06	6	3.9433177644073433e-02	4.1788191750258348e-06	6	3.4153425864891090e-02	3.4482471525138651e-06	6	0	smoothSolver	3.5089026503722573e-02	2.6706858813500660e-06	6	1	GAMG	2.1280222121221851e-01	6.8661747705403098e-05	5	1	smoothSolver	3.1798874868651891e-02	2.7463572667836379e-06	6	1
38                      	smoothSolver	9.4302644229597183e-03	1.1187025529927651e-06	6	3.9175826426502587e-02	4.0967394359348060e-06	6	3.3746254797474111e-02	3.3596001110759899e-06	6	0	smoothSolver	3.4114754111904497e-02	2.6629412069521109e-06	6	1	GAMG	2.2319166214139710e-01	2.0118045742019769e-04	4	1	smoothSolver	3.0615471191005161e-02	2.7052796303055368e-06	6	1
39                      	smoothSolver	9.3909674063754889e-03	1.0890041823756159e-06	6	3.8356528555010309e-02	3.8975561048694206e-06	6	3.3417090485540722e-02	3.3129841403396242e-06	6	0	smoothSolver	3.3348033242175598e-02	2.6921681234185710e-06	6	1	GAMG	2.3253262422173751e-01	2.0215476929027630e-04	4	1	smoothSolver	2.9537139555349121e-02	2.6647692612360220e-06	6	1
40                      	smoothSolver	9.2790295676318316e-03	1.0271914116876751e-06	6	3.7875996577477040e-02	3.7711748319739810e-06	6	3.2951000125507772e-02	3.2380496110469170e-06	6	0	smoothSolver	3.2509653324149852e-02	2.7071059485603592e-06	6	1	GAMG	2.2286345976890620e-01	8.0563013485715983e-05	5	1	smoothSolver	2.8472550685986611e-02	2.6202296626870790e-06	6	1
41                      	smoothSolver	9.1944793710455955e-03	9.6278333948608927e-07	6	3.6961778851097839e-02	3.6049118860449098e-06	6	3.2363675569939993e-02	3.1204643190891611e-06	6	0	smoothSolver	3.1803169016174172e-02	2.7426844015876042e-06	6	1	GAMG	2.1831849982085841e-01	8.9866181062607788e-05	5	1	smoothSolver	2.7594871189040159e-02	2.5787266018919208e-06	6	1
42                      	smoothSolver	9.1527937716705983e-03	9.0314449595823051e-07	6	3.6206729019095017e-02	3.3604440275089920e-06	6	3.1635054052638341e-02	2.9755108175961260e-06	6	0	smoothSolver	3.0944239513194409e-02	2.7601341451806672e-06	6	1	GAMG	1.9602264436743430e-01	1.6814881954738481e-04	4	1	smoothSolver	2.6606301267665111e-02	2.5238065272730940e-06	6	1
43                      	smoothSolver	9.1172646026513853e-03	8.5829535515726669e-07	6	3.5497709690280210e-02	3.2128753994066059e-06	6	3.0734978593400950e-02	2.8570243347684731e-06	6	0	smoothSolver	3.0209648134668071e-02	2.7813319580735810e-06	6	1	GAMG	1.9411653954514430e-01	1.9206336764754061e-04	4	1	smoothSolver	2.5742055231289529e-02	2.4633903758465069e-06	6	1
44                      	smoothSolver	9.0848302585734581e-03	8.1949968430334671e-07	6	3.4842172554409023e-02	2.9547934978793651e-06	6	2.9863295554142161e-02	2.7289365674184462e-06	6	0	smoothSolver	2.9370612845072211e-02	2.7757833316598551e-06	6	1	GAMG	1.8102683181024340e-01	1.6603496174642790e-04	4	1	smoothSolver	2.4843996845879859e-02	2.3835008049006629e-06	6	1
45                      	smoothSolver	9.0545116623531093e-03	7.7964870799521564e-07	6	3.4222809772785960e-02	2.7823496002559538e-06	6	2.8988439113929350e-02	2.5721002159427171e-06	6	0	smoothSolver	2.8480129142631389e-02	2.7634669427133640e-06	6	1	GAMG	1.7704032721393259e-01	1.6723143601827769e-04	4	1	smoothSolver	2.4006338496406619e-02	2.2967496116491648e-06	6	1
46                      	smoothSolver	8.9954719055473243e-03	7.3968951526917655e-07	6	3.3654854452784502e-02	2.6415557095895561e-06	6	2.8104781564590179e-02	2.4200468354952859e-06	6	0	smoothSolver	2.7580537770446889e-02	2.7334913051538651e-06	6	1	GAMG	1.7053138191130260e-01	4.4309788970143082e-05	5	1	smoothSolver	2.3188484515034750e-02	2.1971696722397048e-06	6	1
47                      	smoothSolver	8.9546067833512887e-03	7.0155147239189326e-07	6	3.3140589652033238e-02	2.5282579137475749e-06	6	2.7222978817867598e-02	2.2550696111694932e-06	6	0	smoothSolver	2.6738892080824909e-02	2.6982824836363510e-06	6	1	GAMG	1.6677931823802181e-01	6.0154765971735950e-05	5	1	smoothSolver	2.2433873424622369e-02	2.0946235976441531e-06	6	1
48                      	smoothSolver	8.9112868880918145e-03	6.6457186093303808e-07	6	3.2551339333133762e-02	2.3867338420304128e-06	6	2.6376996095030220e-02	2.0949911392679360e-06	6	0	smoothSolver	2.5839731151172541e-02	2.6339582516413559e-06	6	1	GAMG	1.5947308846651401e-01	4.9302059576511283e-05	5	1	smoothSolver	2.1811353640027790e-02	1.9809404373217980e-06	6	1
49                      	smoothSolver	8.8641248173486568e-03	6.2468531566872533e-07	6	3.2088102371406323e-02	2.2578944871811461e-06	6	2.5510558548481430e-02	1.9327377294846461e-06	6	0	smoothSolver	2.4994591930696090e-02	2.5595292821697411e-06	6	1	GAMG	1.5356212211607659e-01	4.0669856514950578e-05	5	1	smoothSolver	2.1256212593525340e-02	1.8555786091679860e-06	6	1
50                      	smoothSolver	8.8312001192662921e-03	5.8546363677514384e-07	6	3.1681717920745242e-02	2.1384397456308551e-06	6	2.4823959865138759e-02	1.7893181383629671e-06	6	0	smoothSolver	2.4224941072824861e-02	2.4720090390738609e-06	6	1	GAMG	1.4697893519526220e-01	4.3857743016328067e-05	5	1	smoothSolver	2.0780838758339130e-02	1.7288963313073421e-06	6	1
51                      	smoothSolver	8.8010199933515436e-03	5.5053105493786384e-07	6	3.1303898894280868e-02	2.0315706191954888e-06	6	2.4017102145754140e-02	1.6388645253208449e-06	6	0	smoothSolver	2.3496854048456129e-02	2.3808391620038431e-06	6	1	GAMG	1.4199467819835840e-01	4.1971127583315977e-05	5	1	smoothSolver	2.0301324914877902e-02	1.6020112114174600e-06	6	1
52                      	smoothSolver	8.7733018521956880e-03	8.5226179842697118e-06	4	3.0955956608890479e-02	1.9317840372853699e-06	6	2.3303031756571359e-02	1.5036973825843400e-06	6	0	smoothSolver	2.2796867912810489e-02	2.2849393819353022e-06	6	1	GAMG	1.3436207539338249e-01	4.1884898080738778e-05	5	1	smoothSolver	1.9923970710056318e-02	1.4788408523935350e-06	6	1
53                      	smoothSolver	8.7619681639709499e-03	8.2711452385387141e-06	4	3.0710863340156418e-02	1.8463533084585790e-06	6	2.2635979870757540e-02	1.3758398152215149e-06	6	0	smoothSolver	2.2128492164561291e-02	2.1888483123530900e-06	6	1	GAMG	1.3329214877740889e-01	4.6262395067705477e-05	5	1	smoothSolver	1.9510122906275709e-02	1.3605765256947500e-06	6	1
54                      	smoothSolver	8.7511277565736657e-03	8.1302494172126270e-06	4	3.0524832864753930e-02	1.7647468396403179e-06	6	2.2069230276703589e-02	2.1925285812619439e-05	4	0	smoothSolver	2.1502467359505249e-02	2.0897916220729488e-06	6	1	GAMG	1.3250034991738741e-01	4.4559391674343198e-05	5	1	smoothSolver	1.9149564204035519e-02	1.2510791513160501e-06	6	1
55                      	smoothSolver	8.7535840676708481e-03	7.9866979409784500e-06	4	3.0360043001255790e-02	3.0085526348915500e-05	4	2.1466754423617611e-02	2.0604202551163740e-05	4	0	smoothSolver	2.1001223314740271e-02	1.9912700041972752e-06	6	1	GAMG	1.3220009454824269e-01	6.3289070014284528e-05	5	1	smoothSolver	1.8785885602418829e-02	1.8587560455394469e-05	4	1
56                      	smoothSolver	8.7737928870204301e-03	7.8571420268492838e-06	4	3.0195999896143879e-02	2.8961434366517068e-05	4	2.0999703036216271e-02	1.9507777570517649e-05	4	0	smoothSolver	2.0600904292212709e-02	1.8928298586683641e-06	6	1	GAMG	1.3155295398803779e-01	3.3267001243702588e-05	5	1	smoothSolver	1.8511176229320150e-02	1.7419451009173049e-05	4	1
57                      	smoothSolver	8.8101581572536218e-03	7.7326157318721440e-06	4	2.9997908224490021e-02	2.7930475891070591e-05	4	2.0505404004132390e-02	1.8449742070280240e-05	4	0	smoothSolver	2.0167301091868980e-02	1.7957831536971490e-06	6	1	GAMG	1.3173725360931191e-01	3.6826532345245423e-05	5	1	smoothSolver	1.8127678872152581e-02	1.6366256236786721e-05	4	1
58                      	smoothSolver	8.8367659052602156e-03	7.5915602731193076e-06	4	2.9754584629751689e-02	2.6726042610118689e-05	4	2.0116873702792009e-02	1.7603706901123599e-05	4	0	smoothSolver	1.9729706264358361e-02	1.7000981929403400e-06	6	1	GAMG	1.3114735303409580e-01	3.1969407161417827e-05	5	1	smoothSolver	1.7763979023629851e-02	1.5382197678473880e-05	4	1
59                      	smoothSolver	8.8869283841919097e-03	7.4907104311629356e-06	4	2.9476714813608661e-02	2.5643671752430731e-05	4	1.9725488253723590e-02	1.6848755737116721e-05	4	0	smoothSolver	1.9339342614913730e-02	1.6064344477065829e-06	6	1	GAMG	1.2988536144898949e-01	3.6584969084054540e-05	5	1	smoothSolver	1.7439597830502841e-02	1.4437643579045690e-05	4	1
60                      	smoothSolver	8.9256051596085899e-03	7.4022287861654959e-06	4	2.9103096473079241e-02	2.4457426056611239e-05	4	1.9401383503030240e-02	1.6273759012080388e-05	4	0	smoothSolver	1.8960190085104380e-02	1.5167081475742831e-06	6	1	GAMG	1.2805732394503741e-01	3.4404390719574917e-05	5	1	smoothSolver	1.7128437157395159e-02	1.3582893117455840e-05	4	1
61                      	smoothSolver	8.9725344496747236e-03	7.3380792153780043e-06	4	2.8780222961498961e-02	2.3429199820695830e-05	4	1.9034559130905061e-02	1.5701407606546691e-05	4	0	smoothSolver	1.8628049322533771e-02	1.4301410609308621e-06	6	1	GAMG	1.2610821670945360e-01	4.2084712849586467e-05	5	1	smoothSolver	1.6758226384760270e-02	1.2783522191477580e-05	4	1
62                      	smoothSolver	9.0037313864029436e-03	7.2657485719675944e-06	4	2.8507049277669439e-02	2.2502814931177179e-05	4	1.8735444764431730e-02	1.5384683218950301e-05	4	0	smoothSolver	1.8291704485760941e-02	1.3474731180433261e-06	6	1	GAMG	1.2442434946875310e-01	4.8393864410370413e-05	5	1	smoothSolver	1.6412515054913208e-02	1.2028456380400140e-05	4	1
63                      	smoothSolver	9.0398141783035457e-03	7.2339000654819152e-06	4	2.8009926722435081e-02	2.1546761515629340e-05	4	1.8446240994592189e-02	1.5200474301802730e-05	4	0	smoothSolver	1.7983881000081491e-02	1.2688188896654869e-06	6	1	GAMG	1.2437808480609240e-01	5.1575342477242841e-05	5	1	smoothSolver	1.6071685890416021e-02	1.1331229070063210e-05	4	1
64                      	smoothSolver	9.0719599364766212e-03	7.2151738394252186e-06	4	2.7684493835492690e-02	2.0758104116558081e-05	4	1.8187148496146732e-02	1.5112188702484960e-05	4	0	smoothSolver	1.7693871204063311e-02	1.1947137487780221e-06	6	1	GAMG	1.2371239731254810e-01	4.6095919605351793e-05	5	1	smoothSolver	1.5771715074083401e-02	1.0669212572352520e-05	4	1
65                      	smoothSolver	9.1188054399719172e-03	7.2221711382637417e-06	4	2.7276510944853082e-02	1.9950522053719109e-05	4	1.7944131249693400e-02	1.5035361137474510e-05	4	0	smoothSolver	1.7382410634184730e-02	1.1243588389787940e-06	6	1	GAMG	1.2339130684975920e-01	4.2975895918057598e-05	5	1	smoothSolver	1.5458285098298210e-02	1.0055408058254190e-05	4	1
66                      	smoothSolver	9.1724104819550095e-03	7.2583568500662013e-06	4	2.6890505458170611e-02	1.9238753502623111e-05	4	1.7698467259200771e-02	1.4946616546020610e-05	4	0	smoothSolver	1.7077070143501731e-02	1.0575993247478400e-06	6	1	GAMG	1.2403178232963180e-01	4.2617725317113427e-05	5	1	smoothSolver	1.5122759125765110e-02	9.4646343039287373e-06	4	1
67                      	smoothSolver	9.2255373991231588e-03	7.3130551000635060e-06	4	2.6520095506692380e-02	1.8555163808682911e-05	4	1.7460950348580809e-02	1.4816358934429489e-05	4	0	smoothSolver	1.6782661616749212e-02	9.9434859711405590e-07	6	1	GAMG	1.2343383040691810e-01	4.0655802347220330e-05	5	1	smoothSolver	1.4799590183243439e-02	8.9202744891489745e-06	4	1
68                      	smoothSolver	9.2852256368626644e-03	7.3726220723001910e-06	4	2.6220715613102130e-02	1.7901582801425799e-05	4	1.7228017868943499e-02	1.4631297652580341e-05	4	0	smoothSolver	1.6480397561623519e-02	9.3512844371483302e-07	6	1	GAMG	1.0528771129543681e-01	3.5496960642632797e-05	5	1	smoothSolver	1.4489350289067671e-02	8.4172611816132251e-06	4	1
69                      	smoothSolver	9.3600419192699912e-03	7.4278244594999038e-06	4	2.5917897814269619e-02	1.7303415250946560e-05	4	1.6980583551819389e-02	1.4439062030286630e-05	4	0	smoothSolver	1.6206327162326641e-02	8.7888737209099601e-07	6	1	GAMG	1.0105126091126070e-01	3.2819760066747468e-05	5	1	smoothSolver	1.4211533004431990e-02	7.9513212627290902e-06	4	1
70                      	smoothSolver	9.4277358463489714e-03	7.4895605625559671e-06	4	2.5642614567918300e-02	1.6751110493688990e-05	4	1.6791200783825830e-02	1.4227572953485980e-05	4	0	smoothSolver	1.5912360474069531e-02	8.2522129906297428e-07	6	1	GAMG	9.8250243393377817e-02	3.1345747363177569e-05	5	1	smoothSolver	1.3939701636304010e-02	7.5080642794299436e-06	4	1
71                      	smoothSolver	9.4922296733402581e-03	7.5548962814788309e-06	4	2.5497886581074471e-02	1.6265603375121209e-05	4	1.6608443986227940e-02	1.3980355840484960e-05	4	0	smoothSolver	1.5662648672749309e-02	1.5350990200992409e-05	4	1	GAMG	9.7887989089032720e-02	3.1250791117367512e-05	5	1	smoothSolver	1.3643644840748790e-02	7.0957180344633428e-06	4	1
72                      	smoothSolver	9.5587266202868341e-03	7.6314468016224338e-06	4	2.5415771345948079e-02	1.5890539006813468e-05	4	1.6432706580192771e-02	1.3693098899495721e-05	4	0	smoothSolver	1.5432452815507990e-02	1.4575841004497149e-05	4	1	GAMG	9.8181004722349086e-02	3.1969930578715308e-05	5	1	smoothSolver	1.3361187329922961e-02	6.7180807281689751e-06	4	1
73                      	smoothSolver	9.6321060001520291e-03	7.7202099752449116e-06	4	2.5383370274186901e-02	1.5620892126558970e-05	4	1.6274543153789671e-02	1.3415964070366340e-05	4	0	smoothSolver	1.5191452287320941e-02	1.3851610075608491e-05	4	1	GAMG	9.8984354624176360e-02	3.3030407398557991e-05	5	1	smoothSolver	1.3148306835765559e-02	6.3582739116553626e-06	4	1
74                      	smoothSolver	9.7041744409711861e-03	7.8222053507686930e-06	4	2.5383904887051719e-02	1.5402441413554349e-05	4	1.6139835915624859e-02	1.3153808937077650e-05	4	0	smoothSolver	1.4954558343770699e-02	1.3187750662116250e-05	4	1	GAMG	9.9831518013813819e-02	3.4088958580548593e-05	5	1	smoothSolver	1.2954442177396950e-02	6.0394728805416482e-06	4	1
75                      	smoothSolver	9.7716399238243802e-03	7.9308344371372293e-06	4	2.5447160026081529e-02	1.5263430906300370e-05	4	1.6043968683531109e-02	1.2919500556853490e-05	4	0	smoothSolver	1.4732996209564850e-02	1.2576055172865591e-05	4	1	GAMG	1.0033341503902719e-01	3.4683420352064347e-05	5	1	smoothSolver	1.2755255821716690e-02	5.7642007615371963e-06	4	1
76                      	smoothSolver	9.8490718852175356e-03	8.0438300814328662e-06	4	2.5529383787743710e-02	1.5220410177936711e-05	4	1.5971005888059438e-02	1.2699717187997339e-05	4	0	smoothSolver	1.4599410884211491e-02	1.2003733076946691e-05	4	1	GAMG	1.0057541658369019e-01	3.4542889263166199e-05	5	1	smoothSolver	1.2553873075678229e-02	5.5225447847647944e-06	4	1
77                      	smoothSolver	9.9319715393347951e-03	8.1543896890884052e-06	4	2.5628584547907288e-02	1.5211595608240559e-05	4	1.5900343115270020e-02	1.2510337642160200e-05	4	0	smoothSolver	1.4498983981706459e-02	1.1469211627616960e-05	4	1	GAMG	1.0068224740181550e-01	3.3943578818563178e-05	5	1	smoothSolver	1.2367935881864030e-02	5.3246624637178273e-06	4	1
78                      	smoothSolver	1.0019722997889211e-02	8.2638130646261381e-06	4	2.5721230767872669e-02	1.5214473107650880e-05	4	1.5829891260046511e-02	1.2354503346337430e-05	4	0	smoothSolver	1.4362434008484861e-02	1.0961884941836760e-05	4	1	GAMG	9.9983695113525131e-02	3.2992933055515221e-05	5	1	smoothSolver	1.2225475237758170e-02	5.1523949683970123e-06	4	1
79                      	smoothSolver	1.0109440102528880e-02	8.3645250167206991e-06	4	2.5827917716998008e-02	1.5269892297078591e-05	4	1.5754091741266581e-02	1.2198774281162941e-05	4	0	smoothSolver	1.4237188570423640e-02	1.0492706285426620e-05	4	1	GAMG	9.9847676885226722e-02	3.3171470103228241e-05	5	1	smoothSolver	1.2071076351372849e-02	4.9875789162605876e-06	4	1
80                      	smoothSolver	1.0200875686276600e-02	8.4569665487584205e-06	4	2.5910590824003960e-02	1.5359699260509691e-05	4	1.5673873451185281e-02	1.2052716014326589e-05	4	0	smoothSolver	1.4115731868271539e-02	1.0068533359103251e-05	4	1	GAMG	1.0062678873389699e-01	3.3507750079605520e-05	5	1	smoothSolver	1.1914950257906900e-02	4.8489815999829677e-06	4	1