# y+ ()                 
# Time                  	patch                   	min                     	max                     	average                 
1000                    	wall	2.9350982071130955e+04	2.9438008023541304e+04	2.9395099289658756e+04
