/*--------------------------------*- C++ -*----------------------------------*\
| =========                 |                                                 |
| \\      /  F ield         | OpenFOAM: The Open Source CFD Toolbox           |
|  \\    /   O peration     | Version:  v1812                                 |
|   \\  /    A nd           | Web:      www.OpenFOAM.com                      |
|    \\/     M anipulation  |                                                 |
\*---------------------------------------------------------------------------*/
FoamFile
{
    version     2.0;
    format      ascii;
    class       surfaceScalarField;
    location    "0";
    object      phi;
}
// * * * * * * * * * * * * * * * * * * * * * * * * * * * * * * * * * * * * * //

dimensions      [0 3 -1 0 0 0 0];
oriented        oriented;


internalField   nonuniform List<scalar> 
300
(
0.8000000070909168
-3.982956187087439e-10
-1.7752634917656e-09
0.8000000014021359
-9.690651170402008e-10
-4.693439525915721e-09
0.7999999962879252
-1.114399322190621e-09
-5.642994030581102e-09
0.7999999933676264
-8.71325500639841e-10
-4.248669505102498e-09
-3.295343997677946e-10
-1.541548666494919e-09
0.8000000065201474
-1.430830565141167e-10
-1.715579234229381e-09
0.8000000012568015
-3.108445945088086e-10
-4.535578757014491e-09
0.799999996530999
-3.856496765424753e-10
-5.500529592193876e-09
0.7999999939094175
-3.000346637804796e-10
-4.243118589819516e-09
-1.148409034534843e-10
-1.582882935835528e-09
0.8000000063523853
5.776524814038495e-11
-1.709178309994287e-09
0.8000000011819968
3.142084370466583e-11
-4.528137598214243e-09
0.7999999966166138
2.483588762936268e-11
-5.436157305090672e-09
0.7999999940946109
1.102935520691531e-11
-4.225340188845905e-09
2.752452710197463e-11
-1.556137219083098e-09
0.8000000063260417
1.283166906063117e-10
-1.736720767198108e-09
0.8000000011754117
3.695212802412589e-10
-4.580879786608705e-09
0.7999999966028074
4.607956904015867e-10
-5.525464104480706e-09
0.7999999941111064
4.443960532896085e-10
-4.191168190281758e-09
1.801390148159502e-10
-1.569746999052768e-09
0.8000000065672462
-1.749281608454112e-09
0.800000001266686
-4.867798364394105e-09
0.799999996586408
-5.859539652352514e-09
0.7999999938468486
-4.52761177438532e-09
-1.707229246861175e-09
0.8000000041727408
-3.38611361172525e-10
-4.253407015486487e-09
0.8000000004525814
-8.112043481389716e-10
-1.125955362279996e-08
0.7999999976822496
-9.719348838033963e-10
-1.299743046761449e-08
0.7999999960747471
-8.657745853568595e-10
-9.760464370067722e-09
-3.708686691084043e-10
-3.664860392937897e-09
0.8000000037001479
-1.366821322790221e-10
-4.177183487996672e-09
0.8000000002918507
-3.034034357085595e-10
-1.040925134976334e-08
0.7999999977884101
-3.212774560526521e-10
-1.198523778366413e-08
0.7999999965696529
-2.822561961934865e-10
-9.047972460152209e-09
-8.809518670105398e-11
-3.301694706525637e-09
0.8000000035334265
3.022282424325465e-11
-4.092288774515396e-09
0.800000000273977
-2.132134468979571e-11
-1.013835082552816e-08
0.7999999978274309
-6.447086735174908e-11
-1.172624709236748e-08
0.7999999967638138
4.52013093621413e-11
-8.737793866231414e-09
1.391471382561354e-11
-3.185863961530089e-09
0.8000000034818824
1.157558493503071e-10
-4.170047607221506e-09
0.8000000002308274
8.26027024558593e-11
-1.073858970634944e-08
0.7999999979371035
1.267201425297787e-10
-1.219626214858386e-08
0.7999999967325276
1.079524691860447e-10
-8.99305638846215e-09
4.265676700754175e-11
-3.293433781248467e-09
0.8000000034487295
-4.603082448539908e-09
0.8000000002749449
-1.08592547620745e-08
0.7999999979183358
-1.231345809541695e-08
0.7999999966672312
-9.211738349890197e-09
-3.295245631917965e-09
0.7999999971665931
-2.623878003760174e-10
-7.552173242331148e-09
0.7999999987147045
3.909792489764624e-11
-1.514205545394276e-08
0.8000000009192157
4.025786676033942e-11
-1.595464374711844e-08
0.8000000021703507
-1.532827864636485e-10
-1.154023387961445e-08
-7.703082616218313e-12
-3.855809904695916e-09
0.79999999746808
-5.178735218436187e-11
-6.10142887325082e-09
0.7999999987158644
-3.250286706446593e-11
-1.279717221081e-08
0.800000000725675
-6.228674255154571e-11
-1.356581464890947e-08
0.8000000023159299
2.792228670500702e-11
-9.560469682590168e-09
2.773542506773252e-11
-3.2784978842848e-09
0.7999999974873642
-4.753614168961933e-11
-5.701292549176173e-09
0.799999998686081
-6.215602255110757e-10
-1.258965687256364e-08
0.8000000008158836
-5.344860567948861e-10
-1.326704590182066e-08
0.8000000023157426
-2.100611018462928e-10
-9.178535886888995e-09
-9.365500597269166e-11
-3.199198106429433e-09
0.7999999969133403
-3.172788254346409e-10
-6.52629487118972e-09
0.7999999987731548
-3.806244208703833e-11
-1.295443383675376e-08
0.8000000011403091
9.524173492231957e-12
-1.354400779558297e-08
0.8000000024321503
-1.107294700375393e-10
-9.753764951270228e-09
4.08446165778299e-11
-3.258652425675024e-09
0.799999997192557
-6.303355049031013e-09
0.7999999988207416
-1.386448729157053e-08
0.8000000010200555
-1.473541826604285e-08
0.8000000025837239
-1.00606458941499e-08
-3.541522630712279e-09
0.7999999895767121
1.188356435477552e-09
-2.010836608334898e-09
0.7999999979021161
2.383981123621482e-09
-4.757678584432767e-09
0.8000000053336257
2.429086876151474e-09
-5.225520556650603e-09
0.8000000098547757
1.826481543787394e-09
-3.242457791152734e-09
5.696090710216576e-10
-1.169044416826637e-09
0.7999999907723383
3.483491717304301e-10
-1.862821585874039e-09
0.7999999979472219
1.750125155908214e-10
-4.272540965466476e-09
0.8000000047310202
2.364820489461834e-10
-4.521544841293292e-09
0.8000000085979025
4.098560602017177e-10
-3.007698534673863e-09
1.070351030030289e-10
-1.047947106869171e-09
0.7999999905989997
-8.725383970897855e-10
-2.285981848260121e-09
0.7999999980086918
-9.863371897012042e-10
-4.154209531925801e-09
0.8000000049043944
-8.114479061482833e-10
-4.241484689757283e-09
0.8000000082950816
-7.852902328409072e-10
-3.18351056627364e-09
-1.531094251383543e-10
-1.006985383966708e-09
0.7999999904852013
-9.43389366625497e-11
-1.804309146535843e-09
0.799999998183581
-9.481158302904188e-10
-4.163114097899268e-09
0.800000004930552
-1.181886274763184e-09
-4.515001354258922e-09
0.8000000089272629
-4.176104351216767e-10
-2.783518526783268e-09
-2.420255551527345e-10
-1.003434224600142e-09
0.7999999896314252
-2.372036567166447e-09
0.7999999979498105
-4.273629317097516e-09
0.8000000056948279
-4.205586090488819e-09
0.8000000091028472
-3.273766147060542e-09
-1.040708186295092e-09
0.7999999868298702
1.336371457938412e-09
0.7999999974342741
2.869118742587774e-09
0.8000000073166883
3.133062591508781e-09
0.800000011928189
2.061240800266264e-09
6.907063809791225e-10
0.7999999883626177
-7.481109065565285e-11
0.7999999976982181
2.933439491314952e-10
0.8000000062448666
5.165422004821956e-10
0.8000000105576546
2.340440952153253e-10
1.479969258255646e-10
0.799999988730772
-3.908656953655069e-10
0.7999999979214164
-9.952417556746696e-10
0.8000000059623683
-1.084964570649921e-09
0.8000000104716067
-3.852981933505356e-10
-1.495582657717883e-10
0.7999999881263966
-6.620663572931528e-10
0.7999999978316936
-1.058631049488667e-09
0.8000000066620349
-8.724710109930817e-10
0.8000000107073468
-9.078578777632639e-10
-2.792992503941605e-10
0.7999999877298325
0.7999999980178538
0.8000000066266478
0.8000000113359054
)
;

boundaryField
{
    inlet
    {
        type            calculated;
        value           nonuniform List<scalar> 
25
(
-0.8000000111279335
-0.8000000103313423
-0.8000000100451756
-0.8000000101607068
-0.8000000104173379
-0.8000000075774065
-0.8000000069001838
-0.8000000066268167
-0.8000000066872652
-0.8000000069187747
-0.7999999990705908
-0.7999999985458168
-0.7999999984422415
-0.7999999983471695
-0.7999999977126127
-0.7999999839662459
-0.7999999863429617
-0.7999999870396564
-0.7999999852945798
-0.7999999851059028
-0.7999999799445727
-0.7999999826173156
-0.7999999824676927
-0.7999999816859615
-0.7999999803618296
)
;
    }
    outlet
    {
        type            calculated;
        value           nonuniform List<scalar> 
25
(
0.7999999925748593
0.7999999932339281
0.7999999934636066
0.7999999934085609
0.7999999930482797
0.7999999956579567
0.799999996399694
0.7999999965758811
0.7999999965480549
0.7999999964627382
0.800000002987677
0.8000000030030816
0.8000000029476104
0.8000000031349224
0.8000000030532326
0.8000000106992977
0.8000000095600788
0.8000000093460082
0.8000000096522273
0.8000000101362779
0.8000000130373865
0.8000000116559738
0.800000011359979
0.8000000116590957
0.8000000122176942
)
;
    }
    wall
    {
        type            calculated;
        value           uniform 0;
    }
    symm_left
    {
        type            cyclic;
        value           nonuniform List<scalar> 
25
(
3.552966365560925e-10
3.293147532446037e-10
6.789902862180936e-10
-5.698277405485886e-10
-2.086277817170414e-10
8.789676986253875e-10
1.053326537103772e-09
6.530277429916964e-10
-6.245402417448513e-10
-1.108589509080108e-09
1.014417398497687e-09
1.230963023969843e-09
5.469906887797347e-10
-6.72234814500316e-10
-1.692169251981341e-09
7.159345782881143e-10
9.948768475709343e-10
4.461508495978707e-10
-1.033437135866676e-09
-1.002128779958868e-09
2.367117613033544e-10
4.023923416696109e-10
3.277804694334871e-11
-2.815095268005033e-10
-4.098457573320476e-10
)
;
    }
    symm_right
    {
        type            cyclic;
        value           nonuniform List<scalar> 
25
(
-3.552966365560925e-10
-3.293147532446037e-10
-6.789902862180936e-10
5.698282734556483e-10
2.086283146241e-10
-8.789676986253875e-10
-1.053326537103772e-09
-6.530277429916964e-10
6.245405970162206e-10
1.108589864351472e-09
-1.014417398497687e-09
-1.230963023969843e-09
-5.469906887797347e-10
6.72234814500316e-10
1.692169251981341e-09
-7.159345782881143e-10
-9.948768475709343e-10
-4.461508495978707e-10
1.033437135866676e-09
1.002128779958868e-09
-2.367117613033544e-10
-4.023923416696109e-10
-3.277804694334871e-11
2.815095268005033e-10
4.098457573320476e-10
)
;
    }
}


// ************************************************************************* //
