/*--------------------------------*- C++ -*----------------------------------*\
| =========                 |                                                 |
| \\      /  F ield         | OpenFOAM: The Open Source CFD Toolbox           |
|  \\    /   O peration     | Version:  v1812                                 |
|   \\  /    A nd           | Web:      www.OpenFOAM.com                      |
|    \\/     M anipulation  |                                                 |
\*---------------------------------------------------------------------------*/
FoamFile
{
    version     2.0;
    format      ascii;
    class       volVectorField;
    location    "0";
    object      U;
}
// * * * * * * * * * * * * * * * * * * * * * * * * * * * * * * * * * * * * * //

dimensions      [0 1 -1 0 0 0 0];


internalField   nonuniform List<vector> 
125
(
(0.2000000022773563 -5.374872769081415e-12 -2.219079364707e-10)
(0.2000000010616316 -1.12621773018516e-11 -5.866799407394652e-10)
(0.1999999997112576 -1.249774046161689e-11 -7.053742538226379e-10)
(0.199999998706944 -1.942386529396572e-11 -5.310837103422725e-10)
(0.1999999982428107 -1.160282980805502e-11 -1.926935611074046e-10)
(0.2000000021064362 -6.767231219839684e-11 -2.144474042786726e-10)
(0.2000000009721186 -1.599887389236443e-10 -5.669473446268112e-10)
(0.199999999723475 -1.87506119290522e-10 -6.87566199024235e-10)
(0.199999998805052 -1.46420015001425e-10 -5.303898459318997e-10)
(0.1999999983929182 -5.55469212293325e-11 -1.978603447749807e-10)
(0.2000000020496952 -1.066471216892851e-11 -2.13647288749286e-10)
(0.2000000009417978 -3.492798272830573e-11 -5.660171997767804e-10)
(0.1999999997248264 -4.510172361413907e-11 -6.795196631363343e-10)
(0.1999999988389031 -3.612566357169553e-11 -5.281675236057382e-10)
(0.1999999984447772 -1.091454704393871e-11 -1.945171523853873e-10)
(0.2000000020608435 2.32602118122036e-11 -2.170901181042241e-10)
(0.2000000009376816 5.011777659547095e-11 -5.726099511216273e-10)
(0.1999999997222774 6.070394170275356e-11 -6.906830130600884e-10)
(0.1999999988392392 5.692819271541071e-11 -5.238960237852195e-10)
(0.1999999984399583 2.595795106641319e-11 -1.962183748815959e-10)
(0.200000002123073 6.045164369083975e-11 -2.186602232612248e-10)
(0.2000000009792415 1.560611223583307e-10 -6.084747733448025e-10)
(0.1999999997316367 1.844016361124093e-10 -7.324424565440646e-10)
(0.1999999988041571 1.450413511516757e-10 -5.659514717981649e-10)
(0.1999999983618911 5.210634701491303e-11 -2.134036558576469e-10)
(0.2000000014687684 -1.162075990990166e-12 -7.535838106309532e-10)
(0.2000000005781652 3.026527362060009e-11 -1.99412414358946e-09)
(0.1999999997668539 3.237851752080578e-11 -2.330053059498892e-09)
(0.1999999992196246 1.613778277675936e-11 -1.751141723294047e-09)
(0.199999998966588 3.94045907015083e-12 -6.508011490824472e-10)
(0.2000000013250415 -5.941166447698275e-11 -7.365953402782566e-10)
(0.2000000004989998 -1.393259979609595e-10 -1.868103763347228e-09)
(0.1999999997600326 -1.616515286042184e-10 -2.185720910880022e-09)
(0.1999999992947579 -1.435038504693508e-10 -1.661386384022022e-09)
(0.1999999991211684 -5.73704903028549e-11 -6.105722136218184e-10)
(0.2000000012700305 -1.330739685112548e-11 -7.251833855637106e-10)
(0.2000000004759255 -4.059061142758225e-11 -1.833311050192243e-09)
(0.199999999762676 -4.82185376499927e-11 -2.145300535804482e-09)
(0.1999999993239057 -2.963186362947572e-11 -1.620391770762453e-09)
(0.1999999991674619 -9.272561884987594e-12 -5.927501503522059e-10)
(0.2000000012711434 1.824730644361949e-11 -7.383460440268939e-10)
(0.2000000004640887 7.660180822988223e-12 -1.91493368384421e-09)
(0.1999999997709914 7.781148295023438e-12 -2.215215778857514e-09)
(0.1999999993337038 1.914424452298383e-11 -1.648028077894102e-09)
(0.1999999991600727 7.071440655259625e-12 -6.078976003132116e-10)
(0.2000000012959381 5.563380311990331e-11 -7.940454960220224e-10)
(0.2000000004654593 1.419911549449539e-10 -1.965881649135248e-09)
(0.1999999997741601 1.697103958124527e-10 -2.271624718471183e-09)
(0.1999999993231959 1.378536867990829e-10 -1.717418768309997e-09)
(0.1999999991412462 5.563113858464424e-11 -6.253093598473928e-10)
(0.199999999529648 5.207531073025954e-11 -1.475697529451647e-09)
(0.1999999994851623 8.651570848616785e-11 -3.300201129041724e-09)
(0.19999999995424 7.340606944250934e-11 -3.61900927406606e-09)
(0.2000000003861959 3.660850789177772e-11 -2.662587278434712e-09)
(0.2000000006447535 3.134370540891323e-12 -9.400838010820146e-10)
(0.1999999995017371 -3.927186631447185e-11 -1.284826534053706e-09)
(0.199999999522993 8.243544735719896e-13 -2.900802945071666e-09)
(0.1999999999301925 -2.753595596112877e-12 -3.193881554071701e-09)
(0.2000000003802007 -1.567006246983013e-11 -2.326055262291681e-09)
(0.2000000006648764 2.50402892865137e-12 -8.225240905046503e-10)
(0.1999999994912008 -1.24154228564599e-11 -1.224197665461446e-09)
(0.1999999995216807 -8.175790322528805e-11 -2.841000959485918e-09)
(0.1999999999377456 -7.459659159163129e-11 -3.124161624273519e-09)
(0.2000000003914534 -2.276735744377593e-11 -2.239541219140051e-09)
(0.2000000006579192 -8.239947613119935e-12 -7.98132761270498e-10)
(0.1999999994075637 -4.560188476832032e-11 -1.337042809801403e-09)
(0.1999999994608119 -8.245282234753403e-11 -2.9616279428879e-09)
(0.199999999989183 -6.562024096394699e-11 -3.217533743020855e-09)
(0.2000000004465574 -4.009880483213394e-11 -2.343352667466545e-09)
(0.2000000006958841 -6.601307001030518e-12 -8.190107758654364e-10)
(0.1999999993631463 4.521393259793159e-11 -1.363304684420808e-09)
(0.1999999995016624 7.687066261308228e-11 -3.090467759481186e-09)
(0.1999999999800997 6.956435778399582e-11 -3.381109545182475e-09)
(0.2000000004504725 4.192769464950174e-11 -2.409048030505012e-09)
(0.2000000007046196 9.202810735686648e-12 -8.545960328287809e-10)
(0.1999999966928698 7.7315998048278e-11 -1.195376231333256e-09)
(0.1999999984348535 2.199300880301182e-10 -2.487466749245825e-09)
(0.2000000004044677 2.196065077063949e-10 -2.647520537971131e-09)
(0.2000000018985502 9.913055099008956e-11 -1.847836467172569e-09)
(0.2000000025692592 3.601244302764431e-11 -6.281067874147615e-10)
(0.1999999971394124 1.920882342076881e-10 -9.955312962883773e-10)
(0.199999998589945 3.198741715948474e-10 -2.133714147034559e-09)
(0.2000000003347803 3.331961211883223e-10 -2.260919947377576e-09)
(0.2000000016661153 2.795422088253118e-10 -1.571021018831331e-09)
(0.2000000022697477 8.458050787529787e-11 -5.408056322209193e-10)
(0.1999999972048321 -6.552363096545922e-11 -9.984092996795373e-10)
(0.1999999985759615 -1.014156092438157e-10 -2.09298330056118e-09)
(0.2000000003641358 -7.187072659914725e-11 -2.188566337825031e-09)
(0.2000000016499345 -4.6929268804341e-11 -1.545255792767542e-09)
(0.2000000022051363 -5.759295818030807e-12 -5.257729362995177e-10)
(0.1999999969724726 -1.208596778212719e-10 -1.041325504991253e-09)
(0.1999999985835978 -2.418066191722801e-10 -2.139693494607186e-09)
(0.2000000003892666 -2.491667726139333e-10 -2.257376146505795e-09)
(0.2000000017322268 -1.503625668419772e-10 -1.567160429205571e-09)
(0.2000000023224362 -4.939188641417399e-11 -5.327608285088381e-10)
(0.1999999968421659 -8.302081244693229e-11 -1.084423960351355e-09)
(0.1999999984476544 -1.965820312088693e-10 -2.267264570532391e-09)
(0.2000000004555798 -2.317651361579377e-10 -2.367625544566459e-09)
(0.2000000018497095 -1.813809241690832e-10 -1.666801502375747e-09)
(0.2000000024048907 -6.544190744861545e-11 -5.727788521259215e-10)
(0.1999999958468054 1.40967870709829e-10 -2.513545760418623e-10)
(0.199999998033018 2.200661319839978e-10 -5.947098230540958e-10)
(0.2000000005938703 1.801116674409302e-10 -6.531900695813256e-10)
(0.2000000024056097 1.323890025384242e-10 -4.053072016896307e-10)
(0.2000000031206969 3.510757795588438e-11 -1.461305743077904e-10)
(0.1999999963724916 1.57695079217035e-10 -2.328526982342548e-10)
(0.1999999982576044 3.95307803158218e-10 -5.340676206833092e-10)
(0.2000000004928856 4.562006045499874e-10 -5.651931051616617e-10)
(0.2000000021003152 2.869106119351987e-10 -3.759622946297721e-10)
(0.2000000027767035 1.048379077994707e-10 -1.309934105631073e-10)
(0.1999999963998081 -5.82095760481849e-11 -2.857477310325153e-10)
(0.1999999983315236 -8.773725079791463e-11 -5.192761914907252e-10)
(0.2000000004854731 -7.105279071985057e-11 -5.301855862196607e-10)
(0.200000002054247 -1.890676781801648e-11 -3.979388207842049e-10)
(0.2000000027289483 -1.951647177203666e-13 -1.258731729958385e-10)
(0.1999999962265447 -1.316165176845625e-10 -2.255386211125203e-10)
(0.1999999982447612 -2.567340923187445e-10 -5.203892844418686e-10)
(0.2000000005617161 -2.446794477053754e-10 -5.643751692823655e-10)
(0.2000000021711727 -1.616445144403401e-10 -3.479398158479084e-10)
(0.2000000027958053 -5.360718119407081e-11 -1.254292780750177e-10)
(0.1999999960114577 -1.088367451718142e-10 -2.965045486913457e-10)
(0.1999999982184607 -2.709025920255569e-10 -5.342036868416497e-10)
(0.2000000005805627 -3.20580032871803e-10 -5.256982613111025e-10)
(0.2000000022453192 -2.387483322152665e-10 -4.092207683825677e-10)
(0.2000000029442 -8.6143125965776e-11 -1.300885232868865e-10)
)
;

boundaryField
{
    inlet
    {
        type            inletOutlet;
        inletValue      uniform (1 0 0);
        value           uniform (1 0 0);
    }
    outlet
    {
        type            inletOutlet;
        inletValue      uniform (1 0 0);
        value           nonuniform List<vector> 
25
(
(0.1999999982428107 -1.160282980805502e-11 -1.926935611074046e-10)
(0.1999999983929182 -5.55469212293325e-11 -1.978603447749807e-10)
(0.1999999984447772 -1.091454704393871e-11 -1.945171523853873e-10)
(0.1999999984399583 2.595795106641319e-11 -1.962183748815959e-10)
(0.1999999983618911 5.210634701491303e-11 -2.134036558576469e-10)
(0.199999998966588 3.94045907015083e-12 -6.508011490824472e-10)
(0.1999999991211684 -5.73704903028549e-11 -6.105722136218184e-10)
(0.1999999991674619 -9.272561884987594e-12 -5.927501503522059e-10)
(0.1999999991600727 7.071440655259625e-12 -6.078976003132116e-10)
(0.1999999991412462 5.563113858464424e-11 -6.253093598473928e-10)
(0.2000000006447535 3.134370540891323e-12 -9.400838010820146e-10)
(0.2000000006648764 2.50402892865137e-12 -8.225240905046503e-10)
(0.2000000006579192 -8.239947613119935e-12 -7.98132761270498e-10)
(0.2000000006958841 -6.601307001030518e-12 -8.190107758654364e-10)
(0.2000000007046196 9.202810735686648e-12 -8.545960328287809e-10)
(0.2000000025692592 3.601244302764431e-11 -6.281067874147615e-10)
(0.2000000022697477 8.458050787529787e-11 -5.408056322209193e-10)
(0.2000000022051363 -5.759295818030807e-12 -5.257729362995177e-10)
(0.2000000023224362 -4.939188641417399e-11 -5.327608285088381e-10)
(0.2000000024048907 -6.544190744861545e-11 -5.727788521259215e-10)
(0.2000000031206969 3.510757795588438e-11 -1.461305743077904e-10)
(0.2000000027767035 1.048379077994707e-10 -1.309934105631073e-10)
(0.2000000027289483 -1.951647177203666e-13 -1.258731729958385e-10)
(0.2000000027958053 -5.360718119407081e-11 -1.254292780750177e-10)
(0.2000000029442 -8.6143125965776e-11 -1.300885232868865e-10)
)
;
    }
    wall
    {
        type            noSlip;
    }
    symm_left
    {
        type            cyclic;
    }
    symm_right
    {
        type            cyclic;
    }
}


// ************************************************************************* //
